<?xml version="1.0" encoding="UTF-8"?>

<!-- generated on 2023-10-13 16:08:31 by Eclipse SUMO sumo Version v1_18_0+2071-a9e2bd2bef5
This data file and the accompanying materials
are made available under the terms of the Eclipse Public License v2.0
which accompanies this distribution, and is available at
http://www.eclipse.org/legal/epl-v20.html
This file may also be made available under the following Secondary
Licenses when the conditions for such availability set forth in the Eclipse
Public License 2.0 are satisfied: GNU General Public License, version 2
or later which is available at
https://www.gnu.org/licenses/old-licenses/gpl-2.0-standalone.html
SPDX-License-Identifier: EPL-2.0 OR GPL-2.0-or-later
<configuration xmlns:xsi="http://www.w3.org/2001/XMLSchema-instance" xsi:noNamespaceSchemaLocation="http://sumo.dlr.de/xsd/sumoConfiguration.xsd">

    <input>
        <net-file value="net.net.xml"/>
        <route-files value="input_routes.rou.xml"/>
    </input>

    <output>
        <write-license value="true"/>
        <fcd-output value="fcd.xml"/>
        <tripinfo-output value="tripinfos.xml"/>
    </output>

    <processing>
        <default.speeddev value="0"/>
        <pedestrian.model value="jupedsim"/>
    </processing>

    <report>
        <xml-validation value="never"/>
        <no-step-log value="true"/>
    </report>

    <fcd_device>
        <device.fcd.period value="10"/>
    </fcd_device>

</configuration>
-->

<fcd-export xmlns:xsi="http://www.w3.org/2001/XMLSchema-instance" xsi:noNamespaceSchemaLocation="http://sumo.dlr.de/xsd/fcd_file.xsd">
    <timestep time="0.00">
        <person id="0" x="1802.04" y="2068.48" angle="343.90" speed="0.00" pos="0.00" edge="1464" slope="0.00"/>
    </timestep>
    <timestep time="10.00">
        <person id="0" x="1789.26" y="2063.28" angle="249.20" speed="1.39" pos="0.00" edge="-1388" slope="0.00"/>
        <person id="6" x="1781.29" y="2059.86" angle="253.79" speed="1.39" pos="5.56" edge="-1388" slope="0.00"/>
        <person id="8" x="1652.47" y="2000.32" angle="74.10" speed="1.39" pos="2.78" edge="1388" slope="0.00"/>
        <person id="5" x="1656.48" y="2001.46" angle="74.10" speed="1.39" pos="6.94" edge="1388" slope="0.00"/>
        <person id="1" x="1661.80" y="2003.05" angle="73.79" speed="1.39" pos="12.50" edge="1388" slope="0.00"/>
        <person id="4" x="1791.70" y="1907.26" angle="5.31" speed="1.39" pos="8.33" edge="1391" slope="0.00"/>
        <person id="7" x="1802.29" y="2064.32" angle="176.57" speed="1.39" pos="0.00" edge="1464" slope="0.00"/>
        <person id="2" x="1798.96" y="2079.16" angle="343.90" speed="1.39" pos="11.11" edge="1464" slope="0.00"/>
        <person id="9" x="1597.10" y="1890.56" angle="24.74" speed="1.39" pos="1.39" edge="533" slope="0.00"/>
        <person id="3" x="1600.59" y="1898.13" angle="24.74" speed="1.39" pos="9.72" edge="533" slope="0.00"/>
    </timestep>
    <timestep time="20.00">
        <person id="0" x="1776.12" y="2058.86" angle="253.34" speed="1.39" pos="10.79" edge="-1388" slope="0.00"/>
        <person id="6" x="1767.95" y="2055.98" angle="253.79" speed="1.39" pos="19.44" edge="-1388" slope="0.00"/>
        <person id="8" x="1665.83" y="2004.13" angle="74.10" speed="1.39" pos="16.67" edge="1388" slope="0.00"/>
        <person id="5" x="1669.84" y="2005.27" angle="74.10" speed="1.39" pos="20.83" edge="1388" slope="0.00"/>
        <person id="1" x="1675.14" y="2006.93" angle="73.79" speed="1.39" pos="26.39" edge="1388" slope="0.00"/>
        <person id="4" x="1792.99" y="1921.09" angle="5.31" speed="1.39" pos="22.22" edge="1391" slope="0.00"/>
        <person id="7" x="1803.12" y="2050.46" angle="176.57" speed="1.39" pos="139.70" edge="1391" slope="0.00"/>
        <person id="2" x="1795.11" y="2092.50" angle="343.90" speed="1.39" pos="25.00" edge="1464" slope="0.00"/>
        <person id="9" x="1602.91" y="1903.18" angle="24.74" speed="1.39" pos="15.28" edge="533" slope="0.00"/>
        <person id="3" x="1606.40" y="1910.74" angle="24.74" speed="1.39" pos="23.61" edge="533" slope="0.00"/>
    </timestep>
    <timestep time="30.00">
        <person id="0" x="1762.82" y="2054.88" angle="253.35" speed="1.39" pos="24.68" edge="-1388" slope="0.00"/>
        <person id="6" x="1754.61" y="2052.10" angle="253.79" speed="1.39" pos="33.33" edge="-1388" slope="0.00"/>
        <person id="8" x="1679.19" y="2007.93" angle="74.10" speed="1.39" pos="30.56" edge="1388" slope="0.00"/>
        <person id="5" x="1683.19" y="2009.07" angle="74.10" speed="1.39" pos="34.72" edge="1388" slope="0.00"/>
        <person id="1" x="1688.48" y="2010.80" angle="73.79" speed="1.39" pos="40.28" edge="1388" slope="0.00"/>
        <person id="4" x="1794.27" y="1934.92" angle="5.31" speed="1.39" pos="36.11" edge="1391" slope="0.00"/>
        <person id="7" x="1803.96" y="2036.67" angle="184.82" speed="1.39" pos="138.32" edge="1391" slope="0.00"/>
        <person id="2" x="1791.25" y="2105.84" angle="343.90" speed="1.39" pos="38.89" edge="1464" slope="0.00"/>
        <person id="9" x="1608.73" y="1915.79" angle="24.74" speed="1.39" pos="29.17" edge="533" slope="0.00"/>
        <person id="3" x="1612.21" y="1923.36" angle="24.74" speed="1.39" pos="37.50" edge="533" slope="0.00"/>
    </timestep>
    <timestep time="40.00">
        <person id="0" x="1749.51" y="2050.90" angle="253.35" speed="1.39" pos="38.57" edge="-1388" slope="0.00"/>
        <person id="6" x="1741.28" y="2048.23" angle="253.79" speed="1.39" pos="47.22" edge="-1388" slope="0.00"/>
        <person id="8" x="1692.54" y="2011.73" angle="74.10" speed="1.39" pos="44.44" edge="1388" slope="0.00"/>
        <person id="5" x="1696.55" y="2012.88" angle="74.10" speed="1.39" pos="48.61" edge="1388" slope="0.00"/>
        <person id="1" x="1701.81" y="2014.68" angle="73.79" speed="1.39" pos="54.17" edge="1388" slope="0.00"/>
        <person id="4" x="1795.56" y="1948.75" angle="5.31" speed="1.39" pos="50.00" edge="1391" slope="0.00"/>
        <person id="7" x="1802.72" y="2022.83" angle="185.18" speed="1.39" pos="124.43" edge="1391" slope="0.00"/>
        <person id="9" x="1614.54" y="1928.40" angle="24.74" speed="1.39" pos="43.05" edge="533" slope="0.00"/>
        <person id="3" x="1618.03" y="1935.97" angle="24.74" speed="1.39" pos="51.39" edge="533" slope="0.00"/>
    </timestep>
    <timestep time="50.00">
        <person id="0" x="1736.20" y="2046.93" angle="253.35" speed="1.39" pos="52.46" edge="-1388" slope="0.00"/>
        <person id="6" x="1727.94" y="2044.35" angle="253.79" speed="1.39" pos="61.11" edge="-1388" slope="0.00"/>
        <person id="8" x="1705.90" y="2015.54" angle="74.10" speed="1.39" pos="58.33" edge="1388" slope="0.00"/>
        <person id="5" x="1709.91" y="2016.68" angle="74.10" speed="1.39" pos="62.50" edge="1388" slope="0.00"/>
        <person id="1" x="1715.15" y="2018.56" angle="73.79" speed="1.39" pos="68.06" edge="1388" slope="0.00"/>
        <person id="4" x="1796.85" y="1962.57" angle="5.31" speed="1.39" pos="63.89" edge="1391" slope="0.00"/>
        <person id="7" x="1801.47" y="2009.00" angle="185.18" speed="1.39" pos="110.55" edge="1391" slope="0.00"/>
        <person id="9" x="1620.35" y="1941.02" angle="24.74" speed="1.39" pos="56.94" edge="533" slope="0.00"/>
        <person id="3" x="1623.84" y="1948.59" angle="24.74" speed="1.39" pos="65.27" edge="533" slope="0.00"/>
    </timestep>
    <timestep time="60.00">
        <person id="0" x="1722.90" y="2042.95" angle="253.35" speed="1.39" pos="66.35" edge="-1388" slope="0.00"/>
        <person id="8" x="1719.26" y="2019.34" angle="74.10" speed="1.39" pos="72.22" edge="1388" slope="0.00"/>
        <person id="5" x="1723.27" y="2020.49" angle="74.10" speed="1.39" pos="76.39" edge="1388" slope="0.00"/>
        <person id="4" x="1798.13" y="1976.40" angle="5.31" speed="1.39" pos="77.78" edge="1391" slope="0.00"/>
        <person id="7" x="1800.21" y="1995.17" angle="185.18" speed="1.39" pos="96.66" edge="1391" slope="0.00"/>
        <person id="9" x="1626.16" y="1953.63" angle="24.74" speed="1.39" pos="70.83" edge="533" slope="0.00"/>
        <person id="3" x="1629.65" y="1961.20" angle="24.76" speed="1.39" pos="79.16" edge="533" slope="0.00"/>
    </timestep>
    <timestep time="70.00">
        <person id="8" x="1732.62" y="2023.15" angle="74.10" speed="1.39" pos="86.11" edge="1388" slope="0.00"/>
        <person id="5" x="1736.62" y="2024.29" angle="74.10" speed="1.39" pos="90.28" edge="1388" slope="0.00"/>
        <person id="7" x="1799.30" y="1981.46" angle="186.59" speed="1.39" pos="82.93" edge="1391" slope="0.00"/>
        <person id="4" x="1799.37" y="1990.17" angle="5.79" speed="1.39" pos="91.60" edge="1391" slope="0.00"/>
        <person id="9" x="1631.98" y="1966.24" angle="24.82" speed="1.39" pos="84.72" edge="533" slope="0.00"/>
        <person id="3" x="1635.49" y="1973.80" angle="25.01" speed="1.39" pos="93.05" edge="533" slope="0.00"/>
    </timestep>
    <timestep time="80.00">
        <person id="8" x="1745.97" y="2026.96" angle="74.03" speed="1.39" pos="100.00" edge="1388" slope="0.00"/>
        <person id="5" x="1749.98" y="2028.11" angle="73.96" speed="1.39" pos="104.17" edge="1388" slope="0.00"/>
        <person id="4" x="1800.73" y="2003.99" angle="5.61" speed="1.39" pos="105.49" edge="1391" slope="0.00"/>
        <person id="9" x="1637.84" y="1978.83" angle="25.05" speed="1.39" pos="98.61" edge="533" slope="0.00"/>
        <person id="3" x="1641.37" y="1986.38" angle="25.03" speed="1.39" pos="106.94" edge="533" slope="0.00"/>
    </timestep>
    <timestep time="90.00">
        <person id="8" x="1759.32" y="2030.80" angle="73.84" speed="1.39" pos="113.89" edge="1388" slope="0.00"/>
        <person id="5" x="1763.32" y="2031.96" angle="73.83" speed="1.39" pos="118.06" edge="1388" slope="0.00"/>
        <person id="4" x="1802.09" y="2017.82" angle="5.59" speed="1.39" pos="119.38" edge="1391" slope="0.00"/>
        <person id="3" x="1646.82" y="1999.04" angle="352.09" speed="1.33" pos="2.24" edge="533" slope="0.00"/>
        <person id="9" x="1643.72" y="1991.42" angle="24.97" speed="1.39" pos="112.50" edge="533" slope="0.00"/>
    </timestep>
    <timestep time="100.00">
        <person id="8" x="1772.66" y="2034.67" angle="73.84" speed="1.39" pos="127.78" edge="1388" slope="0.00"/>
        <person id="5" x="1776.66" y="2035.83" angle="73.86" speed="1.39" pos="131.95" edge="1388" slope="0.00"/>
        <person id="4" x="1803.43" y="2031.64" angle="5.48" speed="1.39" pos="133.27" edge="1391" slope="0.00"/>
        <person id="9" x="1646.06" y="2004.54" angle="352.09" speed="1.39" pos="4.83" edge="533" slope="0.00"/>
        <person id="3" x="1644.91" y="2012.80" angle="352.09" speed="1.39" pos="13.08" edge="533" slope="0.00"/>
    </timestep>
    <timestep time="110.00">
        <person id="3" x="1651.21" y="2021.51" angle="73.32" speed="1.39" pos="141.16" edge="-1388" slope="0.00"/>
        <person id="8" x="1786.00" y="2038.53" angle="73.95" speed="1.39" pos="141.67" edge="1388" slope="0.00"/>
        <person id="5" x="1790.01" y="2039.67" angle="74.23" speed="1.39" pos="145.83" edge="1388" slope="0.00"/>
        <person id="4" x="1797.69" y="2041.78" angle="298.44" speed="1.39" pos="3.29" edge="1391" slope="0.00"/>
        <person id="9" x="1643.99" y="2018.27" angle="349.13" speed="1.39" pos="0.43" edge="533" slope="0.00"/>
    </timestep>
    <timestep time="120.00">
        <person id="3" x="1664.52" y="2025.49" angle="73.35" speed="1.39" pos="127.27" edge="-1388" slope="0.00"/>
        <person id="9" x="1656.54" y="2023.10" angle="73.35" speed="1.39" pos="135.61" edge="-1388" slope="0.00"/>
        <person id="8" x="1799.52" y="2039.02" angle="100.56" speed="1.39" pos="5.38" edge="1388" slope="0.00"/>
        <person id="5" x="1803.64" y="2038.44" angle="89.55" speed="1.39" pos="11.82" edge="1388" slope="0.00"/>
        <person id="4" x="1790.56" y="2053.21" angle="333.65" speed="1.39" pos="7.97" edge="1391" slope="0.00"/>
    </timestep>
    <timestep time="130.00">
        <person id="4" x="1781.41" y="2059.34" angle="254.29" speed="1.39" pos="5.58" edge="-1388" slope="0.00"/>
        <person id="3" x="1677.83" y="2029.47" angle="73.35" speed="1.39" pos="113.39" edge="-1388" slope="0.00"/>
        <person id="9" x="1669.84" y="2027.08" angle="73.35" speed="1.39" pos="121.72" edge="-1388" slope="0.00"/>
        <person id="5" x="1802.90" y="2024.84" angle="185.18" speed="1.39" pos="126.45" edge="1391" slope="0.00"/>
        <person id="8" x="1803.28" y="2028.99" angle="185.17" speed="1.39" pos="130.62" edge="1391" slope="0.00"/>
    </timestep>
    <timestep time="140.00">
        <person id="4" x="1768.05" y="2055.57" angle="254.23" speed="1.39" pos="19.46" edge="-1388" slope="0.00"/>
        <person id="3" x="1691.13" y="2033.45" angle="73.35" speed="1.39" pos="99.50" edge="-1388" slope="0.00"/>
        <person id="9" x="1683.15" y="2031.06" angle="73.35" speed="1.39" pos="107.83" edge="-1388" slope="0.00"/>
        <person id="5" x="1801.65" y="2011.01" angle="185.18" speed="1.39" pos="112.57" edge="1391" slope="0.00"/>
        <person id="8" x="1802.03" y="2015.16" angle="185.18" speed="1.39" pos="116.73" edge="1391" slope="0.00"/>
    </timestep>
    <timestep time="150.00">
        <person id="4" x="1754.68" y="2051.80" angle="254.23" speed="1.39" pos="33.35" edge="-1388" slope="0.00"/>
        <person id="3" x="1704.44" y="2037.43" angle="73.35" speed="1.39" pos="85.61" edge="-1388" slope="0.00"/>
        <person id="9" x="1696.45" y="2035.04" angle="73.35" speed="1.39" pos="93.94" edge="-1388" slope="0.00"/>
        <person id="5" x="1800.40" y="1997.18" angle="185.18" speed="1.39" pos="98.68" edge="1391" slope="0.00"/>
        <person id="8" x="1800.77" y="2001.33" angle="185.18" speed="1.39" pos="102.84" edge="1391" slope="0.00"/>
    </timestep>
    <timestep time="160.00">
        <person id="4" x="1741.32" y="2048.02" angle="254.23" speed="1.39" pos="47.24" edge="-1388" slope="0.00"/>
        <person id="9" x="1709.76" y="2039.02" angle="73.35" speed="1.39" pos="80.05" edge="-1388" slope="0.00"/>
        <person id="5" x="1799.14" y="1983.35" angle="185.18" speed="1.39" pos="84.79" edge="1391" slope="0.00"/>
        <person id="8" x="1799.52" y="1987.50" angle="185.18" speed="1.39" pos="88.96" edge="1391" slope="0.00"/>
    </timestep>
    <timestep time="170.00">
        <person id="4" x="1727.95" y="2044.25" angle="254.23" speed="1.39" pos="61.13" edge="-1388" slope="0.00"/>
        <person id="8" x="1798.27" y="1973.67" angle="185.18" speed="1.39" pos="75.07" edge="1391" slope="0.00"/>
    </timestep>
</fcd-export>
