<?xml version="1.0" encoding="UTF-8"?>

<!-- generated on 2023-05-23 08:00:41 by Eclipse SUMO sumo Version v1_16_0+1740-bd1a7123e59
This data file and the accompanying materials
are made available under the terms of the Eclipse Public License v2.0
which accompanies this distribution, and is available at
http://www.eclipse.org/legal/epl-v20.html
This file may also be made available under the following Secondary
Licenses when the conditions for such availability set forth in the Eclipse
Public License 2.0 are satisfied: GNU General Public License, version 2
or later which is available at
https://www.gnu.org/licenses/old-licenses/gpl-2.0-standalone.html
SPDX-License-Identifier: EPL-2.0 OR GPL-2.0-or-later
<configuration xmlns:xsi="http://www.w3.org/2001/XMLSchema-instance" xsi:noNamespaceSchemaLocation="http://sumo.dlr.de/xsd/sumoConfiguration.xsd">

    <input>
        <net-file value="net.net.xml"/>
        <route-files value="input_routes.rou.xml"/>
    </input>

    <output>
        <write-license value="true"/>
        <fcd-output value="fcd.xml"/>
        <tripinfo-output value="tripinfos.xml"/>
    </output>

    <processing>
        <default.speeddev value="0"/>
        <pedestrian.model value="jupedsim"/>
    </processing>

    <report>
        <xml-validation value="never"/>
        <no-step-log value="true"/>
    </report>

    <fcd_device>
        <device.fcd.period value="10"/>
    </fcd_device>

</configuration>
-->

<tripinfos xmlns:xsi="http://www.w3.org/2001/XMLSchema-instance" xsi:noNamespaceSchemaLocation="http://sumo.dlr.de/xsd/tripinfo_file.xsd">
    <personinfo id="2" depart="2.00" type="DEFAULT_PEDTYPE" speedFactor="1.00">
        <walk depart="2.00" departPos="0.00" arrival="46.00" arrivalPos="44.46" duration="44.00" routeLength="44.46" timeLoss="11.99" maxSpeed="1.39"/>
    </personinfo>
    <personinfo id="1" depart="1.00" type="DEFAULT_PEDTYPE" speedFactor="1.00">
        <walk depart="1.00" departPos="0.00" arrival="75.00" arrivalPos="74.33" duration="74.00" routeLength="74.33" timeLoss="20.49" maxSpeed="1.39"/>
    </personinfo>
    <personinfo id="6" depart="6.00" type="DEFAULT_PEDTYPE" speedFactor="1.00">
        <walk depart="6.00" departPos="0.00" arrival="80.00" arrivalPos="74.33" duration="74.00" routeLength="74.33" timeLoss="20.49" maxSpeed="1.39"/>
    </personinfo>
    <personinfo id="0" depart="0.00" type="DEFAULT_PEDTYPE" speedFactor="1.00">
        <walk depart="0.00" departPos="0.00" arrival="91.00" arrivalPos="74.33" duration="91.00" routeLength="91.29" timeLoss="25.27" maxSpeed="1.39"/>
    </personinfo>
    <personinfo id="7" depart="7.00" type="DEFAULT_PEDTYPE" speedFactor="1.00">
        <walk depart="7.00" departPos="0.00" arrival="108.00" arrivalPos="69.85" duration="101.00" routeLength="100.46" timeLoss="28.67" maxSpeed="1.39"/>
    </personinfo>
    <personinfo id="3" depart="3.00" type="DEFAULT_PEDTYPE" speedFactor="1.00">
        <walk depart="3.00" departPos="0.00" arrival="218.00" arrivalPos="74.33" duration="215.00" routeLength="216.42" timeLoss="59.18" maxSpeed="1.39"/>
    </personinfo>
    <personinfo id="9" depart="9.00" type="DEFAULT_PEDTYPE" speedFactor="1.00">
        <walk depart="9.00" departPos="0.00" arrival="224.00" arrivalPos="74.33" duration="215.00" routeLength="216.42" timeLoss="59.18" maxSpeed="1.39"/>
    </personinfo>
    <personinfo id="5" depart="5.00" type="DEFAULT_PEDTYPE" speedFactor="1.00">
        <walk depart="5.00" departPos="0.00" arrival="234.00" arrivalPos="69.85" duration="229.00" routeLength="231.00" timeLoss="62.68" maxSpeed="1.39"/>
    </personinfo>
    <personinfo id="8" depart="8.00" type="DEFAULT_PEDTYPE" speedFactor="1.00">
        <walk depart="8.00" departPos="0.00" arrival="237.00" arrivalPos="69.85" duration="229.00" routeLength="231.00" timeLoss="62.68" maxSpeed="1.39"/>
    </personinfo>
    <personinfo id="4" depart="4.00" type="DEFAULT_PEDTYPE" speedFactor="1.00">
        <walk depart="4.00" departPos="0.00" arrival="248.00" arrivalPos="74.33" duration="244.00" routeLength="243.60" timeLoss="68.61" maxSpeed="1.39"/>
    </personinfo>
</tripinfos>
