<?xml version="1.0" encoding="UTF-8"?>

<!-- generated on 2023-10-23 13:27:05 by Eclipse SUMO sumo Version v1_18_0+2206-65a8fc2fdb0
This data file and the accompanying materials
are made available under the terms of the Eclipse Public License v2.0
which accompanies this distribution, and is available at
http://www.eclipse.org/legal/epl-v20.html
This file may also be made available under the following Secondary
Licenses when the conditions for such availability set forth in the Eclipse
Public License 2.0 are satisfied: GNU General Public License, version 2
or later which is available at
https://www.gnu.org/licenses/old-licenses/gpl-2.0-standalone.html
SPDX-License-Identifier: EPL-2.0 OR GPL-2.0-or-later
<configuration xmlns:xsi="http://www.w3.org/2001/XMLSchema-instance" xsi:noNamespaceSchemaLocation="http://sumo.dlr.de/xsd/sumoConfiguration.xsd">

    <input>
        <net-file value="net.net.xml"/>
        <route-files value="input_routes.rou.xml"/>
    </input>

    <output>
        <write-license value="true"/>
        <fcd-output value="fcd.xml"/>
        <tripinfo-output value="tripinfos.xml"/>
    </output>

    <time>
        <end value="2000"/>
    </time>

    <processing>
        <default.speeddev value="0"/>
        <pedestrian.model value="jupedsim"/>
    </processing>

    <report>
        <xml-validation value="never"/>
        <no-step-log value="true"/>
    </report>

    <fcd_device>
        <device.fcd.period value="10"/>
    </fcd_device>

</configuration>
-->

<tripinfos xmlns:xsi="http://www.w3.org/2001/XMLSchema-instance" xsi:noNamespaceSchemaLocation="http://sumo.dlr.de/xsd/tripinfo_file.xsd">
    <personinfo id="2" depart="2.00" type="DEFAULT_PEDTYPE" speedFactor="1.00">
        <walk depart="2.00" departPos="0.00" arrival="33.00" arrivalPos="44.46" duration="31.00" routeLength="44.46" timeLoss="-1.01" maxSpeed="1.39"/>
    </personinfo>
    <personinfo id="1" depart="1.00" type="DEFAULT_PEDTYPE" speedFactor="1.00">
        <walk depart="1.00" departPos="0.00" arrival="54.00" arrivalPos="74.33" duration="53.00" routeLength="74.33" timeLoss="-0.51" maxSpeed="1.39"/>
    </personinfo>
    <personinfo id="6" depart="6.00" type="DEFAULT_PEDTYPE" speedFactor="1.00">
        <walk depart="6.00" departPos="0.00" arrival="59.00" arrivalPos="74.33" duration="53.00" routeLength="74.33" timeLoss="-0.51" maxSpeed="1.39"/>
    </personinfo>
    <personinfo id="0" depart="0.00" type="DEFAULT_PEDTYPE" speedFactor="1.00">
        <walk depart="0.00" departPos="0.00" arrival="65.00" arrivalPos="74.33" duration="65.00" routeLength="91.29" timeLoss="-0.73" maxSpeed="1.39"/>
    </personinfo>
    <personinfo id="7" depart="7.00" type="DEFAULT_PEDTYPE" speedFactor="1.00">
        <walk depart="7.00" departPos="0.00" arrival="79.00" arrivalPos="69.85" duration="72.00" routeLength="100.46" timeLoss="-0.33" maxSpeed="1.39"/>
    </personinfo>
    <personinfo id="3" depart="3.00" type="DEFAULT_PEDTYPE" speedFactor="1.00">
        <walk depart="3.00" departPos="0.00" arrival="157.00" arrivalPos="74.33" duration="154.00" routeLength="216.42" timeLoss="-1.82" maxSpeed="1.39"/>
    </personinfo>
    <personinfo id="9" depart="9.00" type="DEFAULT_PEDTYPE" speedFactor="1.00">
        <walk depart="9.00" departPos="0.00" arrival="163.00" arrivalPos="74.33" duration="154.00" routeLength="216.42" timeLoss="-1.82" maxSpeed="1.39"/>
    </personinfo>
    <personinfo id="5" depart="5.00" type="DEFAULT_PEDTYPE" speedFactor="1.00">
        <walk depart="5.00" departPos="0.00" arrival="170.00" arrivalPos="69.85" duration="165.00" routeLength="231.00" timeLoss="-1.32" maxSpeed="1.39"/>
    </personinfo>
    <personinfo id="8" depart="8.00" type="DEFAULT_PEDTYPE" speedFactor="1.00">
        <walk depart="8.00" departPos="0.00" arrival="173.00" arrivalPos="69.85" duration="165.00" routeLength="231.00" timeLoss="-1.32" maxSpeed="1.39"/>
    </personinfo>
    <personinfo id="4" depart="4.00" type="DEFAULT_PEDTYPE" speedFactor="1.00">
        <walk depart="4.00" departPos="0.00" arrival="179.00" arrivalPos="74.33" duration="175.00" routeLength="243.60" timeLoss="-0.39" maxSpeed="1.39"/>
    </personinfo>
</tripinfos>
