<?xml version="1.0" encoding="UTF-8"?>

<!-- generated on Fri Jan 20 20:43:52 2017 by SUMO Version dev-SVN-r22581
<?xml version="1.0" encoding="UTF-8"?>

<configuration xmlns:xsi="http://www.w3.org/2001/XMLSchema-instance" xsi:noNamespaceSchemaLocation="http://sumo.dlr.de/xsd/sumoConfiguration.xsd">

    <input>
        <net-file value="net.net.xml"/>
        <additional-files value="input_routes.rou.xml"/>
    </input>

    <output>
        <tripinfo-output value="tripinfos.xml"/>
    </output>

    <processing>
        <pedestrian.model value="nonInteracting"/>
    </processing>

    <report>
        <xml-validation value="never"/>
        <no-step-log value="true"/>
    </report>

</configuration>
-->

<tripinfos xmlns:xsi="http://www.w3.org/2001/XMLSchema-instance" xsi:noNamespaceSchemaLocation="http://sumo.dlr.de/xsd/tripinfo_file.xsd">
    <personinfo id="fwd0" depart="1.00">
        <walk arrival="58.00"/>
    </personinfo>
    <personinfo id="bwd1" depart="3.00">
        <walk arrival="59.00"/>
    </personinfo>
    <personinfo id="fwd3" depart="6.00">
        <walk arrival="62.00"/>
    </personinfo>
    <personinfo id="fwd2" depart="5.00">
        <walk arrival="65.00"/>
    </personinfo>
    <personinfo id="bwd0" depart="2.00">
        <walk arrival="67.00"/>
    </personinfo>
    <personinfo id="fwd1" depart="3.00">
        <walk arrival="68.00"/>
    </personinfo>
    <personinfo id="bwd4" depart="17.00">
        <walk arrival="70.00"/>
    </personinfo>
    <personinfo id="fwd4" depart="12.00">
        <walk arrival="71.00"/>
    </personinfo>
    <personinfo id="fwd6" depart="19.00">
        <walk arrival="77.00"/>
    </personinfo>
    <personinfo id="bwd2" depart="10.00">
        <walk arrival="78.00"/>
    </personinfo>
    <personinfo id="bwd3" depart="11.00">
        <walk arrival="79.00"/>
    </personinfo>
    <personinfo id="bwd7" depart="24.00">
        <walk arrival="80.00"/>
    </personinfo>
    <personinfo id="bwd9" depart="27.00">
        <walk arrival="83.00"/>
    </personinfo>
    <personinfo id="bwd5" depart="20.00">
        <walk arrival="84.00"/>
    </personinfo>
    <personinfo id="fwd10" depart="28.00">
        <walk arrival="84.00"/>
    </personinfo>
    <personinfo id="bwd8" depart="26.00">
        <walk arrival="85.00"/>
    </personinfo>
    <personinfo id="bwd10" depart="28.00">
        <walk arrival="85.00"/>
    </personinfo>
    <personinfo id="fwd8" depart="21.00">
        <walk arrival="86.00"/>
    </personinfo>
    <personinfo id="bwd6" depart="21.00">
        <walk arrival="87.00"/>
    </personinfo>
    <personinfo id="fwd7" depart="20.00">
        <walk arrival="89.00"/>
    </personinfo>
    <personinfo id="bwd11" depart="34.00">
        <walk arrival="89.00"/>
    </personinfo>
    <personinfo id="fwd5" depart="16.00">
        <walk arrival="89.00"/>
    </personinfo>
    <personinfo id="fwd9" depart="22.00">
        <walk arrival="93.00"/>
    </personinfo>
    <personinfo id="bwd14" depart="38.00">
        <walk arrival="94.00"/>
    </personinfo>
    <personinfo id="fwd12" depart="37.00">
        <walk arrival="95.00"/>
    </personinfo>
    <personinfo id="fwd11" depart="36.00">
        <walk arrival="95.00"/>
    </personinfo>
    <personinfo id="bwd12" depart="36.00">
        <walk arrival="95.00"/>
    </personinfo>
    <personinfo id="bwd13" depart="37.00">
        <walk arrival="96.00"/>
    </personinfo>
    <personinfo id="fwd13" depart="42.00">
        <walk arrival="96.00"/>
    </personinfo>
    <personinfo id="fwd14" depart="43.00">
        <walk arrival="104.00"/>
    </personinfo>
    <personinfo id="bwd15" depart="41.00">
        <walk arrival="106.00"/>
    </personinfo>
    <personinfo id="fwd19" depart="60.00">
        <walk arrival="112.00"/>
    </personinfo>
    <personinfo id="fwd15" depart="49.00">
        <walk arrival="115.00"/>
    </personinfo>
    <personinfo id="bwd17" depart="60.00">
        <walk arrival="116.00"/>
    </personinfo>
    <personinfo id="bwd16" depart="51.00">
        <walk arrival="117.00"/>
    </personinfo>
    <personinfo id="fwd17" depart="57.00">
        <walk arrival="122.00"/>
    </personinfo>
    <personinfo id="fwd18" depart="59.00">
        <walk arrival="124.00"/>
    </personinfo>
    <personinfo id="fwd16" depart="55.00">
        <walk arrival="124.00"/>
    </personinfo>
    <personinfo id="fwd20" depart="65.00">
        <walk arrival="125.00"/>
    </personinfo>
    <personinfo id="fwd21" depart="66.00">
        <walk arrival="126.00"/>
    </personinfo>
    <personinfo id="bwd19" depart="66.00">
        <walk arrival="129.00"/>
    </personinfo>
    <personinfo id="bwd18" depart="61.00">
        <walk arrival="129.00"/>
    </personinfo>
    <personinfo id="bwd20" depart="68.00">
        <walk arrival="131.00"/>
    </personinfo>
    <personinfo id="fwd22" depart="71.00">
        <walk arrival="133.00"/>
    </personinfo>
    <personinfo id="fwd23" depart="73.00">
        <walk arrival="141.00"/>
    </personinfo>
    <personinfo id="bwd21" depart="74.00">
        <walk arrival="142.00"/>
    </personinfo>
    <personinfo id="fwd28" depart="94.00">
        <walk arrival="148.00"/>
    </personinfo>
    <personinfo id="fwd26" depart="84.00">
        <walk arrival="150.00"/>
    </personinfo>
    <personinfo id="bwd22" depart="85.00">
        <walk arrival="151.00"/>
    </personinfo>
    <personinfo id="fwd25" depart="82.00">
        <walk arrival="152.00"/>
    </personinfo>
    <personinfo id="fwd30" depart="101.00">
        <walk arrival="153.00"/>
    </personinfo>
    <personinfo id="fwd24" depart="81.00">
        <walk arrival="155.00"/>
    </personinfo>
    <personinfo id="fwd31" depart="103.00">
        <walk arrival="156.00"/>
    </personinfo>
    <personinfo id="bwd23" depart="101.00">
        <walk arrival="156.00"/>
    </personinfo>
    <personinfo id="fwd27" depart="93.00">
        <walk arrival="157.00"/>
    </personinfo>
    <personinfo id="fwd33" depart="107.00">
        <walk arrival="159.00"/>
    </personinfo>
    <personinfo id="bwd24" depart="104.00">
        <walk arrival="161.00"/>
    </personinfo>
    <personinfo id="fwd29" depart="97.00">
        <walk arrival="162.00"/>
    </personinfo>
    <personinfo id="fwd32" depart="105.00">
        <walk arrival="165.00"/>
    </personinfo>
    <personinfo id="bwd25" depart="105.00">
        <walk arrival="166.00"/>
    </personinfo>
    <personinfo id="fwd35" depart="110.00">
        <walk arrival="170.00"/>
    </personinfo>
    <personinfo id="bwd27" depart="111.00">
        <walk arrival="170.00"/>
    </personinfo>
    <personinfo id="fwd34" depart="109.00">
        <walk arrival="170.00"/>
    </personinfo>
    <personinfo id="fwd37" depart="120.00">
        <walk arrival="171.00"/>
    </personinfo>
    <personinfo id="bwd29" depart="116.00">
        <walk arrival="173.00"/>
    </personinfo>
    <personinfo id="fwd36" depart="111.00">
        <walk arrival="173.00"/>
    </personinfo>
    <personinfo id="bwd28" depart="112.00">
        <walk arrival="182.00"/>
    </personinfo>
    <personinfo id="fwd38" depart="127.00">
        <walk arrival="182.00"/>
    </personinfo>
    <personinfo id="bwd26" depart="110.00">
        <walk arrival="182.00"/>
    </personinfo>
    <personinfo id="bwd34" depart="134.00">
        <walk arrival="189.00"/>
    </personinfo>
    <personinfo id="fwd40" depart="131.00">
        <walk arrival="190.00"/>
    </personinfo>
    <personinfo id="fwd42" depart="135.00">
        <walk arrival="191.00"/>
    </personinfo>
    <personinfo id="bwd31" depart="127.00">
        <walk arrival="191.00"/>
    </personinfo>
    <personinfo id="bwd33" depart="133.00">
        <walk arrival="192.00"/>
    </personinfo>
    <personinfo id="bwd35" depart="136.00">
        <walk arrival="193.00"/>
    </personinfo>
    <personinfo id="bwd30" depart="120.00">
        <walk arrival="194.00"/>
    </personinfo>
    <personinfo id="fwd41" depart="134.00">
        <walk arrival="198.00"/>
    </personinfo>
    <personinfo id="fwd39" depart="130.00">
        <walk arrival="198.00"/>
    </personinfo>
    <personinfo id="bwd32" depart="128.00">
        <walk arrival="198.00"/>
    </personinfo>
    <personinfo id="bwd36" depart="140.00">
        <walk arrival="199.00"/>
    </personinfo>
    <personinfo id="fwd43" depart="142.00">
        <walk arrival="201.00"/>
    </personinfo>
    <personinfo id="bwd37" depart="144.00">
        <walk arrival="205.00"/>
    </personinfo>
    <personinfo id="fwd44" depart="148.00">
        <walk arrival="206.00"/>
    </personinfo>
    <personinfo id="fwd45" depart="151.00">
        <walk arrival="207.00"/>
    </personinfo>
    <personinfo id="bwd38" depart="151.00">
        <walk arrival="214.00"/>
    </personinfo>
    <personinfo id="fwd51" depart="162.00">
        <walk arrival="214.00"/>
    </personinfo>
    <personinfo id="fwd46" depart="155.00">
        <walk arrival="216.00"/>
    </personinfo>
    <personinfo id="bwd39" depart="154.00">
        <walk arrival="217.00"/>
    </personinfo>
    <personinfo id="fwd53" depart="168.00">
        <walk arrival="223.00"/>
    </personinfo>
    <personinfo id="bwd40" depart="162.00">
        <walk arrival="224.00"/>
    </personinfo>
    <personinfo id="fwd52" depart="164.00">
        <walk arrival="224.00"/>
    </personinfo>
    <personinfo id="bwd41" depart="169.00">
        <walk arrival="224.00"/>
    </personinfo>
    <personinfo id="fwd47" depart="157.00">
        <walk arrival="225.00"/>
    </personinfo>
    <personinfo id="fwd48" depart="158.00">
        <walk arrival="227.00"/>
    </personinfo>
    <personinfo id="bwd44" depart="173.00">
        <walk arrival="228.00"/>
    </personinfo>
    <personinfo id="fwd57" depart="175.00">
        <walk arrival="228.00"/>
    </personinfo>
    <personinfo id="bwd42" depart="170.00">
        <walk arrival="229.00"/>
    </personinfo>
    <personinfo id="fwd54" depart="170.00">
        <walk arrival="231.00"/>
    </personinfo>
    <personinfo id="fwd49" depart="160.00">
        <walk arrival="232.00"/>
    </personinfo>
    <personinfo id="bwd43" depart="171.00">
        <walk arrival="232.00"/>
    </personinfo>
    <personinfo id="fwd55" depart="171.00">
        <walk arrival="232.00"/>
    </personinfo>
    <personinfo id="fwd50" depart="161.00">
        <walk arrival="232.00"/>
    </personinfo>
    <personinfo id="bwd46" depart="181.00">
        <walk arrival="237.00"/>
    </personinfo>
    <personinfo id="fwd58" depart="179.00">
        <walk arrival="238.00"/>
    </personinfo>
    <personinfo id="fwd56" depart="173.00">
        <walk arrival="241.00"/>
    </personinfo>
    <personinfo id="fwd59" depart="180.00">
        <walk arrival="243.00"/>
    </personinfo>
    <personinfo id="fwd60" depart="187.00">
        <walk arrival="243.00"/>
    </personinfo>
    <personinfo id="bwd48" depart="187.00">
        <walk arrival="244.00"/>
    </personinfo>
    <personinfo id="bwd49" depart="188.00">
        <walk arrival="245.00"/>
    </personinfo>
    <personinfo id="bwd47" depart="183.00">
        <walk arrival="246.00"/>
    </personinfo>
    <personinfo id="bwd45" depart="174.00">
        <walk arrival="247.00"/>
    </personinfo>
    <personinfo id="fwd61" depart="198.00">
        <walk arrival="252.00"/>
    </personinfo>
    <personinfo id="bwd50" depart="192.00">
        <walk arrival="259.00"/>
    </personinfo>
    <personinfo id="fwd62" depart="202.00">
        <walk arrival="262.00"/>
    </personinfo>
    <personinfo id="bwd52" depart="212.00">
        <walk arrival="265.00"/>
    </personinfo>
    <personinfo id="bwd51" depart="207.00">
        <walk arrival="268.00"/>
    </personinfo>
    <personinfo id="fwd63" depart="208.00">
        <walk arrival="270.00"/>
    </personinfo>
    <personinfo id="bwd54" depart="215.00">
        <walk arrival="272.00"/>
    </personinfo>
    <personinfo id="fwd64" depart="211.00">
        <walk arrival="276.00"/>
    </personinfo>
    <personinfo id="bwd55" depart="218.00">
        <walk arrival="278.00"/>
    </personinfo>
    <personinfo id="fwd68" depart="222.00">
        <walk arrival="280.00"/>
    </personinfo>
    <personinfo id="bwd57" depart="231.00">
        <walk arrival="282.00"/>
    </personinfo>
    <personinfo id="fwd65" depart="214.00">
        <walk arrival="283.00"/>
    </personinfo>
    <personinfo id="fwd66" depart="216.00">
        <walk arrival="283.00"/>
    </personinfo>
    <personinfo id="bwd56" depart="222.00">
        <walk arrival="285.00"/>
    </personinfo>
    <personinfo id="fwd69" depart="226.00">
        <walk arrival="285.00"/>
    </personinfo>
    <personinfo id="bwd53" depart="213.00">
        <walk arrival="286.00"/>
    </personinfo>
    <personinfo id="fwd67" depart="220.00">
        <walk arrival="287.00"/>
    </personinfo>
    <personinfo id="bwd58" depart="234.00">
        <walk arrival="289.00"/>
    </personinfo>
    <personinfo id="fwd70" depart="234.00">
        <walk arrival="293.00"/>
    </personinfo>
    <personinfo id="bwd59" depart="240.00">
        <walk arrival="296.00"/>
    </personinfo>
    <personinfo id="bwd62" depart="243.00">
        <walk arrival="296.00"/>
    </personinfo>
    <personinfo id="bwd64" depart="245.00">
        <walk arrival="298.00"/>
    </personinfo>
    <personinfo id="fwd73" depart="241.00">
        <walk arrival="299.00"/>
    </personinfo>
    <personinfo id="bwd61" depart="242.00">
        <walk arrival="300.00"/>
    </personinfo>
    <personinfo id="fwd71" depart="238.00">
        <walk arrival="301.00"/>
    </personinfo>
    <personinfo id="bwd60" depart="241.00">
        <walk arrival="302.00"/>
    </personinfo>
    <personinfo id="fwd72" depart="239.00">
        <walk arrival="304.00"/>
    </personinfo>
    <personinfo id="bwd63" depart="244.00">
        <walk arrival="307.00"/>
    </personinfo>
    <personinfo id="fwd74" depart="248.00">
        <walk arrival="312.00"/>
    </personinfo>
    <personinfo id="fwd76" depart="253.00">
        <walk arrival="312.00"/>
    </personinfo>
    <personinfo id="bwd67" depart="254.00">
        <walk arrival="312.00"/>
    </personinfo>
    <personinfo id="bwd69" depart="257.00">
        <walk arrival="312.00"/>
    </personinfo>
    <personinfo id="fwd75" depart="251.00">
        <walk arrival="313.00"/>
    </personinfo>
    <personinfo id="bwd66" depart="251.00">
        <walk arrival="314.00"/>
    </personinfo>
    <personinfo id="bwd65" depart="249.00">
        <walk arrival="316.00"/>
    </personinfo>
    <personinfo id="bwd70" depart="265.00">
        <walk arrival="319.00"/>
    </personinfo>
    <personinfo id="fwd78" depart="261.00">
        <walk arrival="321.00"/>
    </personinfo>
    <personinfo id="fwd77" depart="260.00">
        <walk arrival="322.00"/>
    </personinfo>
    <personinfo id="bwd68" depart="255.00">
        <walk arrival="324.00"/>
    </personinfo>
    <personinfo id="fwd79" depart="275.00">
        <walk arrival="331.00"/>
    </personinfo>
    <personinfo id="bwd72" depart="271.00">
        <walk arrival="331.00"/>
    </personinfo>
    <personinfo id="bwd71" depart="268.00">
        <walk arrival="332.00"/>
    </personinfo>
    <personinfo id="bwd79" depart="281.00">
        <walk arrival="334.00"/>
    </personinfo>
    <personinfo id="fwd80" depart="276.00">
        <walk arrival="335.00"/>
    </personinfo>
    <personinfo id="bwd73" depart="273.00">
        <walk arrival="336.00"/>
    </personinfo>
    <personinfo id="bwd75" depart="277.00">
        <walk arrival="336.00"/>
    </personinfo>
    <personinfo id="bwd74" depart="276.00">
        <walk arrival="337.00"/>
    </personinfo>
    <personinfo id="bwd76" depart="278.00">
        <walk arrival="338.00"/>
    </personinfo>
    <personinfo id="bwd78" depart="280.00">
        <walk arrival="338.00"/>
    </personinfo>
    <personinfo id="fwd81" depart="278.00">
        <walk arrival="339.00"/>
    </personinfo>
    <personinfo id="bwd80" depart="285.00">
        <walk arrival="340.00"/>
    </personinfo>
    <personinfo id="fwd82" depart="280.00">
        <walk arrival="340.00"/>
    </personinfo>
    <personinfo id="bwd77" depart="279.00">
        <walk arrival="342.00"/>
    </personinfo>
    <personinfo id="fwd84" depart="290.00">
        <walk arrival="343.00"/>
    </personinfo>
    <personinfo id="fwd83" depart="281.00">
        <walk arrival="344.00"/>
    </personinfo>
    <personinfo id="fwd85" depart="291.00">
        <walk arrival="353.00"/>
    </personinfo>
    <personinfo id="bwd81" depart="292.00">
        <walk arrival="357.00"/>
    </personinfo>
    <personinfo id="fwd86" depart="297.00">
        <walk arrival="358.00"/>
    </personinfo>
    <personinfo id="bwd83" depart="297.00">
        <walk arrival="359.00"/>
    </personinfo>
    <personinfo id="bwd84" depart="298.00">
        <walk arrival="360.00"/>
    </personinfo>
    <personinfo id="fwd87" depart="303.00">
        <walk arrival="361.00"/>
    </personinfo>
    <personinfo id="bwd88" depart="311.00">
        <walk arrival="362.00"/>
    </personinfo>
    <personinfo id="bwd82" depart="295.00">
        <walk arrival="364.00"/>
    </personinfo>
    <personinfo id="fwd88" depart="305.00">
        <walk arrival="365.00"/>
    </personinfo>
    <personinfo id="fwd89" depart="309.00">
        <walk arrival="368.00"/>
    </personinfo>
    <personinfo id="bwd85" depart="300.00">
        <walk arrival="369.00"/>
    </personinfo>
    <personinfo id="fwd90" depart="311.00">
        <walk arrival="371.00"/>
    </personinfo>
    <personinfo id="bwd87" depart="309.00">
        <walk arrival="372.00"/>
    </personinfo>
    <personinfo id="bwd89" depart="316.00">
        <walk arrival="376.00"/>
    </personinfo>
    <personinfo id="fwd94" depart="323.00">
        <walk arrival="379.00"/>
    </personinfo>
    <personinfo id="fwd95" depart="325.00">
        <walk arrival="383.00"/>
    </personinfo>
    <personinfo id="fwd91" depart="316.00">
        <walk arrival="384.00"/>
    </personinfo>
    <personinfo id="bwd92" depart="332.00">
        <walk arrival="386.00"/>
    </personinfo>
    <personinfo id="fwd98" depart="332.00">
        <walk arrival="386.00"/>
    </personinfo>
    <personinfo id="fwd93" depart="322.00">
        <walk arrival="388.00"/>
    </personinfo>
    <personinfo id="fwd96" depart="329.00">
        <walk arrival="389.00"/>
    </personinfo>
    <personinfo id="fwd99" depart="334.00">
        <walk arrival="389.00"/>
    </personinfo>
    <personinfo id="bwd95" depart="336.00">
        <walk arrival="390.00"/>
    </personinfo>
    <personinfo id="bwd86" depart="304.00">
        <walk arrival="390.00"/>
    </personinfo>
    <personinfo id="bwd93" depart="333.00">
        <walk arrival="391.00"/>
    </personinfo>
    <personinfo id="fwd92" depart="321.00">
        <walk arrival="394.00"/>
    </personinfo>
    <personinfo id="fwd100" depart="337.00">
        <walk arrival="394.00"/>
    </personinfo>
    <personinfo id="bwd90" depart="324.00">
        <walk arrival="397.00"/>
    </personinfo>
    <personinfo id="fwd97" depart="330.00">
        <walk arrival="397.00"/>
    </personinfo>
    <personinfo id="bwd94" depart="334.00">
        <walk arrival="398.00"/>
    </personinfo>
    <personinfo id="bwd100" depart="349.00">
        <walk arrival="400.00"/>
    </personinfo>
    <personinfo id="fwd101" depart="338.00">
        <walk arrival="402.00"/>
    </personinfo>
    <personinfo id="bwd96" depart="343.00">
        <walk arrival="406.00"/>
    </personinfo>
    <personinfo id="bwd91" depart="326.00">
        <walk arrival="407.00"/>
    </personinfo>
    <personinfo id="bwd97" depart="345.00">
        <walk arrival="407.00"/>
    </personinfo>
    <personinfo id="fwd102" depart="345.00">
        <walk arrival="408.00"/>
    </personinfo>
    <personinfo id="bwd99" depart="348.00">
        <walk arrival="411.00"/>
    </personinfo>
    <personinfo id="bwd98" depart="346.00">
        <walk arrival="412.00"/>
    </personinfo>
    <personinfo id="bwd101" depart="350.00">
        <walk arrival="413.00"/>
    </personinfo>
    <personinfo id="bwd103" depart="355.00">
        <walk arrival="413.00"/>
    </personinfo>
    <personinfo id="fwd103" depart="349.00">
        <walk arrival="413.00"/>
    </personinfo>
    <personinfo id="fwd105" depart="358.00">
        <walk arrival="415.00"/>
    </personinfo>
    <personinfo id="fwd106" depart="359.00">
        <walk arrival="419.00"/>
    </personinfo>
    <personinfo id="fwd107" depart="361.00">
        <walk arrival="420.00"/>
    </personinfo>
    <personinfo id="fwd104" depart="352.00">
        <walk arrival="420.00"/>
    </personinfo>
    <personinfo id="bwd102" depart="351.00">
        <walk arrival="421.00"/>
    </personinfo>
    <personinfo id="bwd104" depart="365.00">
        <walk arrival="427.00"/>
    </personinfo>
    <personinfo id="fwd108" depart="373.00">
        <walk arrival="430.00"/>
    </personinfo>
    <personinfo id="bwd106" depart="372.00">
        <walk arrival="434.00"/>
    </personinfo>
    <personinfo id="bwd108" depart="385.00">
        <walk arrival="436.00"/>
    </personinfo>
    <personinfo id="fwd109" depart="374.00">
        <walk arrival="437.00"/>
    </personinfo>
    <personinfo id="bwd105" depart="370.00">
        <walk arrival="441.00"/>
    </personinfo>
    <personinfo id="fwd112" depart="388.00">
        <walk arrival="443.00"/>
    </personinfo>
    <personinfo id="fwd110" depart="380.00">
        <walk arrival="446.00"/>
    </personinfo>
    <personinfo id="fwd114" depart="391.00">
        <walk arrival="446.00"/>
    </personinfo>
    <personinfo id="bwd109" depart="386.00">
        <walk arrival="447.00"/>
    </personinfo>
    <personinfo id="bwd112" depart="393.00">
        <walk arrival="449.00"/>
    </personinfo>
    <personinfo id="fwd113" depart="390.00">
        <walk arrival="450.00"/>
    </personinfo>
    <personinfo id="bwd110" depart="388.00">
        <walk arrival="451.00"/>
    </personinfo>
    <personinfo id="bwd107" depart="382.00">
        <walk arrival="452.00"/>
    </personinfo>
    <personinfo id="bwd111" depart="391.00">
        <walk arrival="452.00"/>
    </personinfo>
    <personinfo id="fwd116" depart="402.00">
        <walk arrival="454.00"/>
    </personinfo>
    <personinfo id="bwd114" depart="396.00">
        <walk arrival="456.00"/>
    </personinfo>
    <personinfo id="fwd111" depart="386.00">
        <walk arrival="456.00"/>
    </personinfo>
    <personinfo id="bwd113" depart="394.00">
        <walk arrival="458.00"/>
    </personinfo>
    <personinfo id="bwd120" depart="409.00">
        <walk arrival="460.00"/>
    </personinfo>
    <personinfo id="bwd116" depart="403.00">
        <walk arrival="462.00"/>
    </personinfo>
    <personinfo id="bwd119" depart="408.00">
        <walk arrival="463.00"/>
    </personinfo>
    <personinfo id="fwd117" depart="403.00">
        <walk arrival="464.00"/>
    </personinfo>
    <personinfo id="fwd118" depart="404.00">
        <walk arrival="465.00"/>
    </personinfo>
    <personinfo id="bwd117" depart="404.00">
        <walk arrival="466.00"/>
    </personinfo>
    <personinfo id="fwd119" depart="410.00">
        <walk arrival="467.00"/>
    </personinfo>
    <personinfo id="fwd115" depart="401.00">
        <walk arrival="467.00"/>
    </personinfo>
    <personinfo id="bwd118" depart="407.00">
        <walk arrival="475.00"/>
    </personinfo>
    <personinfo id="bwd115" depart="397.00">
        <walk arrival="477.00"/>
    </personinfo>
    <personinfo id="bwd124" depart="425.00">
        <walk arrival="479.00"/>
    </personinfo>
    <personinfo id="bwd121" depart="416.00">
        <walk arrival="479.00"/>
    </personinfo>
    <personinfo id="bwd123" depart="424.00">
        <walk arrival="480.00"/>
    </personinfo>
    <personinfo id="fwd121" depart="425.00">
        <walk arrival="480.00"/>
    </personinfo>
    <personinfo id="fwd120" depart="416.00">
        <walk arrival="481.00"/>
    </personinfo>
    <personinfo id="bwd122" depart="420.00">
        <walk arrival="483.00"/>
    </personinfo>
    <personinfo id="fwd122" depart="426.00">
        <walk arrival="485.00"/>
    </personinfo>
    <personinfo id="fwd125" depart="437.00">
        <walk arrival="490.00"/>
    </personinfo>
    <personinfo id="fwd124" depart="435.00">
        <walk arrival="492.00"/>
    </personinfo>
    <personinfo id="fwd123" depart="434.00">
        <walk arrival="493.00"/>
    </personinfo>
    <personinfo id="bwd125" depart="440.00">
        <walk arrival="498.00"/>
    </personinfo>
    <personinfo id="fwd126" depart="440.00">
        <walk arrival="499.00"/>
    </personinfo>
    <personinfo id="fwd128" depart="447.00">
        <walk arrival="501.00"/>
    </personinfo>
    <personinfo id="bwd127" depart="447.00">
        <walk arrival="502.00"/>
    </personinfo>
    <personinfo id="bwd130" depart="454.00">
        <walk arrival="506.00"/>
    </personinfo>
    <personinfo id="bwd126" depart="446.00">
        <walk arrival="509.00"/>
    </personinfo>
    <personinfo id="bwd131" depart="457.00">
        <walk arrival="514.00"/>
    </personinfo>
    <personinfo id="bwd128" depart="452.00">
        <walk arrival="514.00"/>
    </personinfo>
    <personinfo id="fwd129" depart="454.00">
        <walk arrival="514.00"/>
    </personinfo>
    <personinfo id="bwd129" depart="453.00">
        <walk arrival="515.00"/>
    </personinfo>
    <personinfo id="fwd131" depart="459.00">
        <walk arrival="516.00"/>
    </personinfo>
    <personinfo id="fwd130" depart="458.00">
        <walk arrival="517.00"/>
    </personinfo>
    <personinfo id="fwd127" depart="443.00">
        <walk arrival="517.00"/>
    </personinfo>
    <personinfo id="fwd134" depart="475.00">
        <walk arrival="526.00"/>
    </personinfo>
    <personinfo id="fwd132" depart="464.00">
        <walk arrival="527.00"/>
    </personinfo>
    <personinfo id="bwd134" depart="470.00">
        <walk arrival="528.00"/>
    </personinfo>
    <personinfo id="fwd133" depart="471.00">
        <walk arrival="530.00"/>
    </personinfo>
    <personinfo id="bwd133" depart="468.00">
        <walk arrival="530.00"/>
    </personinfo>
    <personinfo id="bwd132" depart="466.00">
        <walk arrival="531.00"/>
    </personinfo>
    <personinfo id="fwd136" depart="479.00">
        <walk arrival="533.00"/>
    </personinfo>
    <personinfo id="fwd135" depart="477.00">
        <walk arrival="537.00"/>
    </personinfo>
    <personinfo id="bwd135" depart="476.00">
        <walk arrival="538.00"/>
    </personinfo>
    <personinfo id="bwd137" depart="482.00">
        <walk arrival="539.00"/>
    </personinfo>
    <personinfo id="fwd137" depart="480.00">
        <walk arrival="540.00"/>
    </personinfo>
    <personinfo id="fwd138" depart="484.00">
        <walk arrival="545.00"/>
    </personinfo>
    <personinfo id="bwd136" depart="481.00">
        <walk arrival="545.00"/>
    </personinfo>
    <personinfo id="fwd140" depart="491.00">
        <walk arrival="546.00"/>
    </personinfo>
    <personinfo id="fwd141" depart="494.00">
        <walk arrival="546.00"/>
    </personinfo>
    <personinfo id="bwd138" depart="487.00">
        <walk arrival="549.00"/>
    </personinfo>
    <personinfo id="bwd140" depart="492.00">
        <walk arrival="550.00"/>
    </personinfo>
    <personinfo id="bwd139" depart="489.00">
        <walk arrival="550.00"/>
    </personinfo>
    <personinfo id="fwd139" depart="488.00">
        <walk arrival="552.00"/>
    </personinfo>
    <personinfo id="bwd142" depart="500.00">
        <walk arrival="556.00"/>
    </personinfo>
    <personinfo id="bwd143" depart="501.00">
        <walk arrival="556.00"/>
    </personinfo>
    <personinfo id="bwd141" depart="493.00">
        <walk arrival="560.00"/>
    </personinfo>
    <personinfo id="bwd145" depart="510.00">
        <walk arrival="561.00"/>
    </personinfo>
    <personinfo id="bwd144" depart="507.00">
        <walk arrival="564.00"/>
    </personinfo>
    <personinfo id="fwd143" depart="512.00">
        <walk arrival="566.00"/>
    </personinfo>
    <personinfo id="fwd142" depart="508.00">
        <walk arrival="573.00"/>
    </personinfo>
    <personinfo id="fwd145" depart="521.00">
        <walk arrival="574.00"/>
    </personinfo>
    <personinfo id="bwd146" depart="522.00">
        <walk arrival="575.00"/>
    </personinfo>
    <personinfo id="bwd147" depart="523.00">
        <walk arrival="577.00"/>
    </personinfo>
    <personinfo id="bwd149" depart="533.00">
        <walk arrival="584.00"/>
    </personinfo>
    <personinfo id="bwd148" depart="525.00">
        <walk arrival="587.00"/>
    </personinfo>
    <personinfo id="bwd150" depart="534.00">
        <walk arrival="588.00"/>
    </personinfo>
    <personinfo id="bwd151" depart="539.00">
        <walk arrival="592.00"/>
    </personinfo>
    <personinfo id="fwd147" depart="531.00">
        <walk arrival="592.00"/>
    </personinfo>
    <personinfo id="fwd149" depart="535.00">
        <walk arrival="593.00"/>
    </personinfo>
    <personinfo id="fwd146" depart="526.00">
        <walk arrival="595.00"/>
    </personinfo>
    <personinfo id="fwd148" depart="532.00">
        <walk arrival="595.00"/>
    </personinfo>
    <personinfo id="fwd152" depart="541.00">
        <walk arrival="598.00"/>
    </personinfo>
    <personinfo id="fwd150" depart="536.00">
        <walk arrival="599.00"/>
    </personinfo>
    <personinfo id="fwd151" depart="540.00">
        <walk arrival="601.00"/>
    </personinfo>
    <personinfo id="fwd154" depart="545.00">
        <walk arrival="602.00"/>
    </personinfo>
    <personinfo id="fwd155" depart="549.00">
        <walk arrival="603.00"/>
    </personinfo>
    <personinfo id="fwd144" depart="520.00">
        <walk arrival="603.00"/>