<?xml version="1.0" encoding="UTF-8"?>

<!-- generated on 2021-05-06 09:22:11 by Eclipse SUMO sumo Version v1_9_1+0230-a224ef6
<configuration xmlns:xsi="http://www.w3.org/2001/XMLSchema-instance" xsi:noNamespaceSchemaLocation="http://sumo.dlr.de/xsd/sumoConfiguration.xsd">

    <input>
        <net-file value="4/../input_net.net.xml"/>
        <route-files value="4/input_routes_004.rou.xml"/>
        <additional-files value="4/dua_dump_004.add.xml"/>
    </input>

    <output>
        <summary-output value="4/summary_004.xml"/>
        <tripinfo-output value="4/tripinfo_004.xml"/>
    </output>

    <time>
        <begin value="0"/>
    </time>

    <processing>
        <route-steps value="200"/>
        <no-internal-links value="false"/>
        <time-to-teleport value="300"/>
        <time-to-teleport.highways value="0"/>
        <eager-insert value="false"/>
    </processing>

    <report>
        <verbose value="true"/>
        <no-warnings value="false"/>
        <log value="4/iteration_004.sumo.log"/>
        <duration-log.disable value="true"/>
        <duration-log.statistics value="true"/>
        <no-step-log value="true"/>
    </report>

    <random_number>
        <random value="false"/>
    </random_number>

</configuration>
-->

<tripinfos xmlns:xsi="http://www.w3.org/2001/XMLSchema-instance" xsi:noNamespaceSchemaLocation="http://sumo.dlr.de/xsd/tripinfo_file.xsd">
    <tripinfo id="flow_0.10" depart="36.00" departLane="start_1" departPos="5.10" departSpeed="15.15" departDelay="0.00" arrival="93.00" arrivalLane="end_0" arrivalPos="115.32" arrivalSpeed="14.27" duration="57.00" routeLength="1028.10" waitingTime="0.00" waitingCount="0" stopTime="0.00" timeLoss="12.03" rerouteNo="0" devices="tripinfo_flow_0.10" vType="DEFAULT_VEHTYPE" speedFactor="1.09" vaporized=""/>
    <tripinfo id="flow_0.1" depart="4.00" departLane="start_0" departPos="5.10" departSpeed="13.03" departDelay="0.40" arrival="98.00" arrivalLane="end_0" arrivalPos="115.32" arrivalSpeed="12.97" duration="94.00" routeLength="996.05" waitingTime="0.00" waitingCount="0" stopTime="0.00" timeLoss="12.89" rerouteNo="0" devices="tripinfo_flow_0.1" vType="DEFAULT_VEHTYPE" speedFactor="0.94" vaporized=""/>
    <tripinfo id="flow_0.2" depart="8.00" departLane="start_0" departPos="5.10" departSpeed="14.03" departDelay="0.80" arrival="100.00" arrivalLane="end_0" arrivalPos="115.32" arrivalSpeed="13.66" duration="92.00" routeLength="996.05" waitingTime="0.00" waitingCount="0" stopTime="0.00" timeLoss="16.53" rerouteNo="0" devices="tripinfo_flow_0.2" vType="DEFAULT_VEHTYPE" speedFactor="1.01" vaporized=""/>
    <tripinfo id="flow_0.3" depart="11.00" departLane="start_0" departPos="5.10" departSpeed="15.04" departDelay="0.20" arrival="101.00" arrivalLane="end_0" arrivalPos="115.32" arrivalSpeed="13.93" duration="90.00" routeLength="996.05" waitingTime="0.00" waitingCount="0" stopTime="0.00" timeLoss="20.32" rerouteNo="0" devices="tripinfo_flow_0.3" vType="DEFAULT_VEHTYPE" speedFactor="1.08" vaporized=""/>
    <tripinfo id="flow_0.4" depart="15.00" departLane="start_0" departPos="5.10" departSpeed="14.31" departDelay="0.60" arrival="103.00" arrivalLane="end_0" arrivalPos="115.32" arrivalSpeed="14.31" duration="88.00" routeLength="996.05" waitingTime="0.00" waitingCount="0" stopTime="0.00" timeLoss="14.54" rerouteNo="0" devices="tripinfo_flow_0.4" vType="DEFAULT_VEHTYPE" speedFactor="1.03" vaporized=""/>
    <tripinfo id="flow_0.0" depart="0.00" departLane="start_1" departPos="5.10" departSpeed="14.72" departDelay="0.00" arrival="114.00" arrivalLane="end_1" arrivalPos="115.32" arrivalSpeed="13.61" duration="114.00" routeLength="995.93" waitingTime="25.00" waitingCount="1" stopTime="0.00" timeLoss="41.85" rerouteNo="0" devices="tripinfo_flow_0.0" vType="DEFAULT_VEHTYPE" speedFactor="1.06" vaporized=""/>
    <tripinfo id="flow_0.5" depart="18.00" departLane="start_0" departPos="5.10" departSpeed="11.54" departDelay="0.00" arrival="146.00" arrivalLane="end_0" arrivalPos="115.32" arrivalSpeed="10.93" duration="128.00" routeLength="996.05" waitingTime="18.00" waitingCount="1" stopTime="0.00" timeLoss="36.55" rerouteNo="0" devices="tripinfo_flow_0.5" vType="DEFAULT_VEHTYPE" speedFactor="0.83" vaporized=""/>
    <tripinfo id="flow_0.6" depart="22.00" departLane="start_0" departPos="5.10" departSpeed="14.53" departDelay="0.40" arrival="147.00" arrivalLane="end_0" arrivalPos="115.32" arrivalSpeed="12.46" duration="125.00" routeLength="996.05" waitingTime="17.00" waitingCount="1" stopTime="0.00" timeLoss="53.21" rerouteNo="0" devices="tripinfo_flow_0.6" vType="DEFAULT_VEHTYPE" speedFactor="1.05" vaporized=""/>
    <tripinfo id="flow_0.7" depart="26.00" departLane="start_0" departPos="5.10" departSpeed="12.31" departDelay="0.80" arrival="149.00" arrivalLane="end_0" arrivalPos="115.32" arrivalSpeed="11.31" duration="123.00" routeLength="996.05" waitingTime="16.00" waitingCount="1" stopTime="0.00" timeLoss="37.62" rerouteNo="0" devices="tripinfo_flow_0.7" vType="DEFAULT_VEHTYPE" speedFactor="0.89" vaporized=""/>
    <tripinfo id="flow_0.8" depart="29.00" departLane="start_0" departPos="5.10" departSpeed="13.03" departDelay="0.20" arrival="151.00" arrivalLane="end_0" arrivalPos="115.32" arrivalSpeed="12.88" duration="122.00" routeLength="996.05" waitingTime="16.00" waitingCount="1" stopTime="0.00" timeLoss="41.16" rerouteNo="0" devices="tripinfo_flow_0.8" vType="DEFAULT_VEHTYPE" speedFactor="0.94" vaporized=""/>
    <tripinfo id="flow_0.9" depart="33.00" departLane="start_0" departPos="5.10" departSpeed="11.90" departDelay="0.60" arrival="154.00" arrivalLane="end_0" arrivalPos="115.32" arrivalSpeed="11.10" duration="121.00" routeLength="996.05" waitingTime="12.00" waitingCount="1" stopTime="0.00" timeLoss="32.65" rerouteNo="0" devices="tripinfo_flow_0.9" vType="DEFAULT_VEHTYPE" speedFactor="0.86" vaporized=""/>
    <tripinfo id="flow_0.11" depart="40.00" departLane="start_0" departPos="5.10" departSpeed="14.26" departDelay="0.40" arrival="155.00" arrivalLane="end_0" arrivalPos="115.32" arrivalSpeed="13.08" duration="115.00" routeLength="996.05" waitingTime="12.00" waitingCount="1" stopTime="0.00" timeLoss="41.73" rerouteNo="0" devices="tripinfo_flow_0.11" vType="DEFAULT_VEHTYPE" speedFactor="1.03" vaporized=""/>
    <tripinfo id="flow_0.12" depart="44.00" departLane="start_0" departPos="5.10" departSpeed="14.54" departDelay="0.80" arrival="157.00" arrivalLane="end_0" arrivalPos="115.32" arrivalSpeed="14.08" duration="113.00" routeLength="996.05" waitingTime="11.00" waitingCount="1" stopTime="0.00" timeLoss="40.77" rerouteNo="0" devices="tripinfo_flow_0.12" vType="DEFAULT_VEHTYPE" speedFactor="1.05" vaporized=""/>
    <tripinfo id="flow_0.13" depart="47.00" departLane="start_0" departPos="5.10" departSpeed="15.60" departDelay="0.20" arrival="159.00" arrivalLane="end_0" arrivalPos="115.32" arrivalSpeed="14.70" duration="112.00" routeLength="996.05" waitingTime="9.00" waitingCount="1" stopTime="0.00" timeLoss="44.40" rerouteNo="0" devices="tripinfo_flow_0.13" vType="DEFAULT_VEHTYPE" speedFactor="1.12" vaporized=""/>
    <tripinfo id="flow_0.14" depart="51.00" departLane="start_0" departPos="5.10" departSpeed="13.77" departDelay="0.60" arrival="161.00" arrivalLane="end_0" arrivalPos="115.32" arrivalSpeed="13.55" duration="110.00" routeLength="996.05" waitingTime="7.00" waitingCount="1" stopTime="0.00" timeLoss="33.46" rerouteNo="0" devices="tripinfo_flow_0.14" vType="DEFAULT_VEHTYPE" speedFactor="0.99" vaporized=""/>
    <tripinfo id="flow_0.15" depart="54.00" departLane="start_0" departPos="5.10" departSpeed="12.87" departDelay="0.00" arrival="163.00" arrivalLane="end_0" arrivalPos="115.32" arrivalSpeed="11.89" duration="109.00" routeLength="996.05" waitingTime="3.00" waitingCount="1" stopTime="0.00" timeLoss="27.05" rerouteNo="0" devices="tripinfo_flow_0.15" vType="DEFAULT_VEHTYPE" speedFactor="0.93" vaporized=""/>
    <tripinfo id="flow_0.17" depart="62.00" departLane="start_1" departPos="5.10" departSpeed="13.08" departDelay="0.80" arrival="172.00" arrivalLane="end_1" arrivalPos="115.32" arrivalSpeed="12.25" duration="110.00" routeLength="995.93" waitingTime="13.00" waitingCount="1" stopTime="0.00" timeLoss="28.21" rerouteNo="0" devices="tripinfo_flow_0.17" vType="DEFAULT_VEHTYPE" speedFactor="0.94" vaporized=""/>
    <tripinfo id="flow_0.24" depart="87.00" departLane="start_1" departPos="5.10" departSpeed="11.47" departDelay="0.60" arrival="191.00" arrivalLane="end_1" arrivalPos="115.32" arrivalSpeed="10.84" duration="104.00" routeLength="995.93" waitingTime="0.00" waitingCount="0" stopTime="0.00" timeLoss="11.15" rerouteNo="0" devices="tripinfo_flow_0.24" vType="DEFAULT_VEHTYPE" speedFactor="0.83" vaporized=""/>
    <tripinfo id="flow_0.26" depart="94.00" departLane="start_1" departPos="5.10" departSpeed="12.74" departDelay="0.40" arrival="193.00" arrivalLane="end_1" arrivalPos="115.32" arrivalSpeed="11.91" duration="99.00" routeLength="995.93" waitingTime="0.00" waitingCount="0" stopTime="0.00" timeLoss="15.07" rerouteNo="0" devices="tripinfo_flow_0.26" vType="DEFAULT_VEHTYPE" speedFactor="0.92" vaporized=""/>
    <tripinfo id="flow_0.16" depart="58.00" departLane="start_0" departPos="5.10" departSpeed="12.20" departDelay="0.40" arrival="198.00" arrivalLane="end_0" arrivalPos="115.32" arrivalSpeed="11.96" duration="140.00" routeLength="996.05" waitingTime="28.00" waitingCount="1" stopTime="0.00" timeLoss="53.94" rerouteNo="0" devices="tripinfo_flow_0.16" vType="DEFAULT_VEHTYPE" speedFactor="0.88" vaporized=""/>
    <tripinfo id="flow_0.18" depart="65.00" departLane="start_0" departPos="5.10" departSpeed="13.00" departDelay="0.20" arrival="200.00" arrivalLane="end_0" arrivalPos="115.32" arrivalSpeed="12.10" duration="135.00" routeLength="996.05" waitingTime="27.00" waitingCount="1" stopTime="0.00" timeLoss="53.96" rerouteNo="0" devices="tripinfo_flow_0.18" vType="DEFAULT_VEHTYPE" speedFactor="0.94" vaporized=""/>
    <tripinfo id="flow_0.19" depart="69.00" departLane="start_0" departPos="5.10" departSpeed="16.09" departDelay="0.60" arrival="201.00" arrivalLane="end_0" arrivalPos="115.32" arrivalSpeed="15.71" duration="132.00" routeLength="996.05" waitingTime="27.00" waitingCount="1" stopTime="0.00" timeLoss="66.88" rerouteNo="0" devices="tripinfo_flow_0.19" vType="DEFAULT_VEHTYPE" speedFactor="1.16" vaporized=""/>
    <tripinfo id="flow_0.20" depart="72.00" departLane="start_0" departPos="5.10" departSpeed="14.14" departDelay="0.00" arrival="203.00" arrivalLane="end_0" arrivalPos="115.32" arrivalSpeed="13.09" duration="131.00" routeLength="996.05" waitingTime="24.00" waitingCount="1" stopTime="0.00" timeLoss="56.70" rerouteNo="0" devices="tripinfo_flow_0.20" vType="DEFAULT_VEHTYPE" speedFactor="1.02" vaporized=""/>
    <tripinfo id="flow_0.21" depart="76.00" departLane="start_0" departPos="5.10" departSpeed="14.03" departDelay="0.40" arrival="205.00" arrivalLane="end_0" arrivalPos="115.32" arrivalSpeed="12.95" duration="129.00" routeLength="996.05" waitingTime="23.00" waitingCount="1" stopTime="0.00" timeLoss="53.75" rerouteNo="0" devices="tripinfo_flow_0.21" vType="DEFAULT_VEHTYPE" speedFactor="1.01" vaporized=""/>
    <tripinfo id="flow_0.22" depart="80.00" departLane="start_0" departPos="5.10" departSpeed="13.54" departDelay="0.80" arrival="207.00" arrivalLane="end_0" arrivalPos="115.32" arrivalSpeed="13.52" duration="127.00" routeLength="996.05" waitingTime="23.00" waitingCount="1" stopTime="0.00" timeLoss="49.15" rerouteNo="0" devices="tripinfo_flow_0.22" vType="DEFAULT_VEHTYPE" speedFactor="0.98" vaporized=""/>
    <tripinfo id="flow_0.23" depart="83.00" departLane="start_0" departPos="5.10" departSpeed="12.36" departDelay="0.20" arrival="209.00" arrivalLane="end_0" arrivalPos="115.32" arrivalSpeed="11.80" duration="126.00" routeLength="996.05" waitingTime="20.00" waitingCount="1" stopTime="0.00" timeLoss="40.90" rerouteNo="0" devices="tripinfo_flow_0.23" vType="DEFAULT_VEHTYPE" speedFactor="0.89" vaporized=""/>
    <tripinfo id="flow_0.25" depart="90.00" departLane="start_0" departPos="5.10" departSpeed="12.12" departDelay="0.00" arrival="211.00" arrivalLane="end_0" arrivalPos="115.32" arrivalSpeed="11.85" duration="121.00" routeLength="996.05" waitingTime="13.00" waitingCount="1" stopTime="0.00" timeLoss="34.69" rerouteNo="0" devices="tripinfo_flow_0.25" vType="DEFAULT_VEHTYPE" speedFactor="0.87" vaporized=""/>
    <tripinfo id="flow_0.27" depart="98.00" departLane="start_0" departPos="5.10" departSpeed="13.18" departDelay="0.80" arrival="213.00" arrivalLane="end_0" arrivalPos="115.32" arrivalSpeed="12.68" duration="115.00" routeLength="996.05" waitingTime="10.00" waitingCount="1" stopTime="0.00" timeLoss="35.28" rerouteNo="0" devices="tripinfo_flow_0.27" vType="DEFAULT_VEHTYPE" speedFactor="0.95" vaporized=""/>
    <tripinfo id="flow_0.30" depart="108.00" departLane="start_1" departPos="5.10" departSpeed="16.37" departDelay="0.00" arrival="215.00" arrivalLane="end_0" arrivalPos="115.32" arrivalSpeed="15.76" duration="107.00" routeLength="1028.10" waitingTime="29.00" waitingCount="2" stopTime="0.00" timeLoss="65.57" rerouteNo="0" devices="tripinfo_flow_0.30" vType="DEFAULT_VEHTYPE" speedFactor="1.18" vaporized=""/>
    <tripinfo id="flow_0.34" depart="123.00" departLane="start_1" departPos="5.10" departSpeed="13.82" departDelay="0.60" arrival="223.00" arrivalLane="end_1" arrivalPos="115.32" arrivalSpeed="12.65" duration="100.00" routeLength="995.93" waitingTime="4.00" waitingCount="1" stopTime="0.00" timeLoss="22.80" rerouteNo="0" devices="tripinfo_flow_0.34" vType="DEFAULT_VEHTYPE" speedFactor="0.99" vaporized=""/>
    <tripinfo id="flow_0.41" depart="148.00" departLane="start_1" departPos="5.10" departSpeed="13.29" departDelay="0.40" arrival="236.00" arrivalLane="end_1" arrivalPos="115.32" arrivalSpeed="12.32" duration="88.00" routeLength="995.93" waitingTime="0.00" waitingCount="0" stopTime="0.00" timeLoss="7.73" rerouteNo="0" devices="tripinfo_flow_0.41" vType="DEFAULT_VEHTYPE" speedFactor="0.96" vaporized=""/>
    <tripinfo id="flow_0.35" depart="126.00" departLane="start_1" departPos="5.10" departSpeed="14.16" departDelay="0.00" arrival="248.00" arrivalLane="end_0" arrivalPos="115.32" arrivalSpeed="13.26" duration="122.00" routeLength="1028.10" waitingTime="34.00" waitingCount="3" stopTime="0.00" timeLoss="73.89" rerouteNo="0" devices="tripinfo_flow_0.35" vType="DEFAULT_VEHTYPE" speedFactor="1.02" vaporized=""/>
    <tripinfo id="flow_0.28" depart="101.00" departLane="start_0" departPos="5.10" departSpeed="15.72" departDelay="0.20" arrival="250.00" arrivalLane="end_0" arrivalPos="115.32" arrivalSpeed="15.05" duration="149.00" routeLength="996.05" waitingTime="34.00" waitingCount="3" stopTime="0.00" timeLoss="81.44" rerouteNo="0" devices="tripinfo_flow_0.28" vType="DEFAULT_VEHTYPE" speedFactor="1.13" vaporized=""/>
    <tripinfo id="flow_0.29" depart="105.00" departLane="start_0" departPos="5.10" departSpeed="12.94" departDelay="0.60" arrival="253.00" arrivalLane="end_0" arrivalPos="115.32" arrivalSpeed="12.16" duration="148.00" routeLength="996.05" waitingTime="28.00" waitingCount="2" stopTime="0.00" timeLoss="66.06" rerouteNo="0" devices="tripinfo_flow_0.29" vType="DEFAULT_VEHTYPE" speedFactor="0.93" vaporized=""/>
    <tripinfo id="flow_0.31" depart="112.00" departLane="start_0" departPos="5.10" departSpeed="16.04" departDelay="0.40" arrival="254.00" arrivalLane="end_0" arrivalPos="115.32" arrivalSpeed="13.68" duration="142.00" routeLength="996.05" waitingTime="27.00" waitingCount="2" stopTime="0.00" timeLoss="76.73" rerouteNo="0" devices="tripinfo_flow_0.31" vType="DEFAULT_VEHTYPE" speedFactor="1.15" vaporized=""/>
    <tripinfo id="flow_0.32" depart="116.00" departLane="start_0" departPos="5.10" departSpeed="13.96" departDelay="0.80" arrival="256.00" arrivalLane="end_0" arrivalPos="115.32" arrivalSpeed="13.88" duration="140.00" routeLength="996.05" waitingTime="25.00" waitingCount="2" stopTime="0.00" timeLoss="64.47" rerouteNo="0" devices="tripinfo_flow_0.32" vType="DEFAULT_VEHTYPE" speedFactor="1.01" vaporized=""/>
    <tripinfo id="flow_0.33" depart="119.00" departLane="start_0" departPos="5.10" departSpeed="16.28" departDelay="0.20" arrival="257.00" arrivalLane="end_0" arrivalPos="115.32" arrivalSpeed="16.07" duration="138.00" routeLength="996.05" waitingTime="23.00" waitingCount="1" stopTime="0.00" timeLoss="73.71" rerouteNo="0" devices="tripinfo_flow_0.33" vType="DEFAULT_VEHTYPE" speedFactor="1.17" vaporized=""/>
    <tripinfo id="flow_0.36" depart="130.00" departLane="start_0" departPos="5.10" departSpeed="13.52" departDelay="0.40" arrival="259.00" arrivalLane="end_0" arrivalPos="115.32" arrivalSpeed="13.46" duration="129.00" routeLength="996.05" waitingTime="23.00" waitingCount="1" stopTime="0.00" timeLoss="51.64" rerouteNo="0" devices="tripinfo_flow_0.36" vType="DEFAULT_VEHTYPE" speedFactor="0.97" vaporized=""/>
    <tripinfo id="flow_0.37" depart="134.00" departLane="start_0" departPos="5.10" departSpeed="16.39" departDelay="0.80" arrival="261.00" arrivalLane="end_0" arrivalPos="115.32" arrivalSpeed="15.94" duration="127.00" routeLength="996.05" waitingTime="23.00" waitingCount="1" stopTime="0.00" timeLoss="62.50" rerouteNo="0" devices="tripinfo_flow_0.37" vType="DEFAULT_VEHTYPE" speedFactor="1.18" vaporized=""/>
    <tripinfo id="flow_0.38" depart="137.00" departLane="start_0" departPos="5.10" departSpeed="15.31" departDelay="0.20" arrival="263.00" arrivalLane="end_0" arrivalPos="115.32" arrivalSpeed="15.02" duration="126.00" routeLength="996.05" waitingTime="22.00" waitingCount="1" stopTime="0.00" timeLoss="57.07" rerouteNo="0" devices="tripinfo_flow_0.38" vType="DEFAULT_VEHTYPE" speedFactor="1.10" vaporized=""/>
    <tripinfo id="flow_0.39" depart="141.00" departLane="start_0" departPos="5.10" departSpeed="12.51" departDelay="0.60" arrival="265.00" arrivalLane="end_0" arrivalPos="115.32" arrivalSpeed="11.71" duration="124.00" routeLength="996.05" waitingTime="18.00" waitingCount="1" stopTime="0.00" timeLoss="40.24" rerouteNo="0" devices="tripinfo_flow_0.39" vType="DEFAULT_VEHTYPE" speedFactor="0.90" vaporized=""/>
    <tripinfo id="flow_0.53" depart="191.00" departLane="start_1" departPos="5.10" departSpeed="15.22" departDelay="0.20" arrival="269.00" arrivalLane="end_1" arrivalPos="115.32" arrivalSpeed="14.42" duration="78.00" routeLength="995.93" waitingTime="0.00" waitingCount="0" stopTime="0.00" timeLoss="8.13" rerouteNo="0" devices="tripinfo_flow_0.53" vType="DEFAULT_VEHTYPE" speedFactor="1.10" vaporized=""/>
    <tripinfo id="flow_0.54" depart="195.00" departLane="start_1" departPos="5.10" departSpeed="13.93" departDelay="0.60" arrival="280.00" arrivalLane="end_1" arrivalPos="115.32" arrivalSpeed="12.83" duration="85.00" routeLength="995.93" waitingTime="0.00" waitingCount="0" stopTime="0.00" timeLoss="8.95" rerouteNo="0" devices="tripinfo_flow_0.54" vType="DEFAULT_VEHTYPE" speedFactor="1.00" vaporized=""/>
    <tripinfo id="flow_0.40" depart="144.00" departLane="start_0" departPos="5.10" departSpeed="14.31" departDelay="0.00" arrival="300.00" arrivalLane="end_0" arrivalPos="115.32" arrivalSpeed="13.44" duration="156.00" routeLength="996.05" waitingTime="46.00" waitingCount="2" stopTime="0.00" timeLoss="82.88" rerouteNo="0" devices="tripinfo_flow_0.40" vType="DEFAULT_VEHTYPE" speedFactor="1.03" vaporized=""/>
    <tripinfo id="flow_0.42" depart="152.00" departLane="start_0" departPos="5.10" departSpeed="15.17" departDelay="0.80" arrival="302.00" arrivalLane="end_0" arrivalPos="115.32" arrivalSpeed="14.54" duration="150.00" routeLength="996.05" waitingTime="44.00" waitingCount="2" stopTime="0.00" timeLoss="80.64" rerouteNo="0" devices="tripinfo_flow_0.42" vType="DEFAULT_VEHTYPE" speedFactor="1.09" vaporized=""/>
    <tripinfo id="flow_0.43" depart="155.00" departLane="start_0" departPos="5.10" departSpeed="14.41" departDelay="0.20" arrival="304.00" arrivalLane="end_0" arrivalPos="115.32" arrivalSpeed="14.14" duration="149.00" routeLength="996.05" waitingTime="41.00" waitingCount="2" stopTime="0.00" timeLoss="75.56" rerouteNo="0" devices="tripinfo_flow_0.43" vType="DEFAULT_VEHTYPE" speedFactor="1.04" vaporized=""/>
    <tripinfo id="flow_0.44" depart="159.00" departLane="start_0" departPos="5.10" departSpeed="14.49" departDelay="0.60" arrival="305.00" arrivalLane="end_0" arrivalPos="115.32" arrivalSpeed="14.12" duration="146.00" routeLength="996.05" waitingTime="40.00" waitingCount="2" stopTime="0.00" timeLoss="73.91" rerouteNo="0" devices="tripinfo_flow_0.44" vType="DEFAULT_VEHTYPE" speedFactor="1.04" vaporized=""/>
    <tripinfo id="flow_0.45" depart="162.00" departLane="start_0" departPos="5.10" departSpeed="15.11" departDelay="0.00" arrival="307.00" arrivalLane="end_0" arrivalPos="115.32" arrivalSpeed="14.04" duration="145.00" routeLength="996.05" waitingTime="39.00" waitingCount="2" stopTime="0.00" timeLoss="75.62" rerouteNo="0" devices="tripinfo_flow_0.45" vType="DEFAULT_VEHTYPE" speedFactor="1.09" vaporized=""/>
    <tripinfo id="flow_0.46" depart="166.00" departLane="start_0" departPos="5.10" departSpeed="13.85" departDelay="0.40" arrival="309.00" arrivalLane="end_0" arrivalPos="115.32" arrivalSpeed="12.87" duration="143.00" routeLength="996.05" waitingTime="34.00" waitingCount="2" stopTime="0.00" timeLoss="67.67" rerouteNo="0" devices="tripinfo_flow_0.46" vType="DEFAULT_VEHTYPE" speedFactor="1.00" vaporized=""/>
    <tripinfo id="flow_0.47" depart="170.00" departLane="start_0" departPos="5.10" departSpeed="12.51" departDelay="0.80" arrival="312.00" arrivalLane="end_0" arrivalPos="115.32" arrivalSpeed="12.25" duration="142.00" routeLength="996.05" waitingTime="25.00" waitingCount="2" stopTime="0.00" timeLoss="58.50" rerouteNo="0" devices="tripinfo_flow_0.47" vType="DEFAULT_VEHTYPE" speedFactor="0.90" vaporized=""/>
    <tripinfo id="flow_0.48" depart="173.00" departLane="start_0" departPos="5.10" departSpeed="12.18" departDelay="0.20" arrival="314.00" arrivalLane="end_0" arrivalPos="115.32" arrivalSpeed="10.92" duration="141.00" routeLength="996.05" waitingTime="24.00" waitingCount="1" stopTime="0.00" timeLoss="55.30" rerouteNo="0" devices="tripinfo_flow_0.48" vType="DEFAULT_VEHTYPE" speedFactor="0.88" vaporized=""/>
    <tripinfo id="flow_0.49" depart="177.00" departLane="start_0" departPos="5.10" departSpeed="11.81" departDelay="0.60" arrival="316.00" arrivalLane="end_0" arrivalPos="115.32" arrivalSpeed="10.90" duration="139.00" routeLength="996.05" waitingTime="23.00" waitingCount="1" stopTime="0.00" timeLoss="50.60" rerouteNo="0" devices="tripinfo_flow_0.49" vType="DEFAULT_VEHTYPE" speedFactor="0.85" vaporized=""/>
    <tripinfo id="flow_0.50" depart="180.00" departLane="start_0" departPos="5.10" departSpeed="11.87" departDelay="0.00" arrival="318.00" arrivalLane="end_0" arrivalPos="115.32" arrivalSpeed="10.72" duration="138.00" routeLength="996.05" waitingTime="22.00" waitingCount="1" stopTime="0.00" timeLoss="49.93" rerouteNo="0" devices="tripinfo_flow_0.50" vType="DEFAULT_VEHTYPE" speedFactor="0.85" vaporized=""/>
    <tripinfo id="flow_0.59" depart="213.00" departLane="start_1" departPos="5.10" departSpeed="13.47" departDelay="0.60" arrival="326.00" arrivalLane="end_1" arrivalPos="115.32" arrivalSpeed="12.91" duration="113.00" routeLength="995.93" waitingTime="18.00" waitingCount="1" stopTime="0.00" timeLoss="33.55" rerouteNo="0" devices="tripinfo_flow_0.59" vType="DEFAULT_VEHTYPE" speedFactor="0.97" vaporized=""/>
    <tripinfo id="flow_0.66" depart="238.00" departLane="start_1" departPos="5.10" departSpeed="12.60" departDelay="0.40" arrival="336.00" arrivalLane="end_1" arrivalPos="115.32" arrivalSpeed="11.39" duration="98.00" routeLength="995.93" waitingTime="0.00" waitingCount="0" stopTime="0.00" timeLoss="13.25" rerouteNo="0" devices="tripinfo_flow_0.66" vType="DEFAULT_VEHTYPE" speedFactor="0.91" vaporized=""/>
    <tripinfo id="flow_0.69" depart="249.00" departLane="start_1" departPos="5.10" departSpeed="14.20" departDelay="0.60" arrival="337.00" arrivalLane="end_1" arrivalPos="115.32" arrivalSpeed="13.10" duration="88.00" routeLength="995.93" waitingTime="0.00" waitingCount="0" stopTime="0.00" timeLoss="12.95" rerouteNo="0" devices="tripinfo_flow_0.69" vType="DEFAULT_VEHTYPE" speedFactor="1.02" vaporized=""/>
    <tripinfo id="flow_0.51" depart="184.00" departLane="start_0" departPos="5.10" departSpeed="16.24" departDelay="0.40" arrival="351.00" arrivalLane="end_0" arrivalPos="115.32" arrivalSpeed="14.96" duration="167.00" routeLength="996.05" waitingTime="52.00" waitingCount="2" stopTime="0.00" timeLoss="101.74" rerouteNo="0" devices="tripinfo_flow_0.51" vType="DEFAULT_VEHTYPE" speedFactor="1.17" vaporized=""/>
    <tripinfo id="flow_0.52" depart="188.00" departLane="start_0" departPos="5.10" departSpeed="14.12" departDelay="0.80" arrival="354.00" arrivalLane="end_0" arrivalPos="115.32" arrivalSpeed="13.75" duration="166.00" routeLength="996.05" waitingTime="49.00" waitingCount="2" stopTime="0.00" timeLoss="91.31" rerouteNo="0" devices="tripinfo_flow_0.52" vType="DEFAULT_VEHTYPE" speedFactor="1.02" vaporized=""/>
    <tripinfo id="flow_0.55" depart="198.00" departLane="start_0" departPos="5.10" departSpeed="13.83" departDelay="0.00" arrival="356.00" arrivalLane="end_0" arrivalPos="115.32" arrivalSpeed="13.36" duration="158.00" routeLength="996.05" waitingTime="47.00" waitingCount="2" stopTime="0.00" timeLoss="81.85" rerouteNo="0" devices="tripinfo_flow_0.55" vType="DEFAULT_VEHTYPE" speedFactor="1.00" vaporized=""/>
    <tripinfo id="flow_0.63" depart="227.00" departLane="start_1" departPos="5.10" departSpeed="13.71" departDelay="0.20" arrival="358.00" arrivalLane="end_0" arrivalPos="115.32" arrivalSpeed="12.56" duration="131.00" routeLength="1028.10" waitingTime="43.00" waitingCount="3" stopTime="0.00" timeLoss="82.12" rerouteNo="0" devices="tripinfo_flow_0.63" vType="DEFAULT_VEHTYPE" speedFactor="0.99" vaporized=""/>
    <tripinfo id="flow_0.56" depart="202.00" departLane="start_0" departPos="5.10" departSpeed="12.49" departDelay="0.40" arrival="361.00" arrivalLane="end_0" arrivalPos="115.32" arrivalSpeed="11.60" duration="159.00" routeLength="996.05" waitingTime="37.00" waitingCount="3" stopTime="0.00" timeLoss="74.63" rerouteNo="0" devices="tripinfo_flow_0.56" vType="DEFAULT_VEHTYPE" speedFactor="0.90" vaporized=""/>
    <tripinfo id="flow_0.57" depart="206.00" departLane="start_0" departPos="5.10" departSpeed="15.87" departDelay="0.80" arrival="363.00" arrivalLane="end_0" arrivalPos="115.32" arrivalSpeed="15.13" duration="157.00" routeLength="996.05" waitingTime="37.00" waitingCount="3" stopTime="0.00" timeLoss="90.22" rerouteNo="0" devices="tripinfo_flow_0.57" vType="DEFAULT_VEHTYPE" speedFactor="1.14" vaporized=""/>
    <tripinfo id="flow_0.58" depart="209.00" departLane="start_0" departPos="5.10" departSpeed="14.22" departDelay="0.20" arrival="364.00" arrivalLane="end_0" arrivalPos="115.32" arrivalSpeed="13.57" duration="155.00" routeLength="996.05" waitingTime="33.00" waitingCount="3" stopTime="0.00" timeLoss="81.28" rerouteNo="0" devices="tripinfo_flow_0.58" vType="DEFAULT_VEHTYPE" speedFactor="1.02" vaporized=""/>
    <tripinfo id="flow_0.60" depart="216.00" departLane="start_0" departPos="5.10" departSpeed="15.04" departDelay="0.00" arrival="366.00" arrivalLane="end_0" arrivalPos="115.32" arrivalSpeed="13.77" duration="150.00" routeLength="996.05" waitingTime="31.00" waitingCount="3" stopTime="0.00" timeLoss="80.12" rerouteNo="0" devices="tripinfo_flow_0.60" vType="DEFAULT_VEHTYPE" speedFactor="1.08" vaporized=""/>
    <tripinfo id="flow_0.61" depart="220.00" departLane="start_0" departPos="5.10" departSpeed="15.55" departDelay="0.40" arrival="368.00" arrivalLane="end_0" arrivalPos="115.32" arrivalSpeed="14.33" duration="148.00" routeLength="996.05" waitingTime="29.00" waitingCount="3" stopTime="0.00" timeLoss="80.17" rerouteNo="0" devices="tripinfo_flow_0.61" vType="DEFAULT_VEHTYPE" speedFactor="1.12" vaporized=""/>
    <tripinfo id="flow_0.62" depart="224.00" departLane="start_0" departPos="5.10" departSpeed="14.11" departDelay="0.80" arrival="370.00" arrivalLane="end_0" arrivalPos="115.32" arrivalSpeed="13.51" duration="146.00" routeLength="996.05" waitingTime="26.00" waitingCount="2" stopTime="0.00" timeLoss="71.07" rerouteNo="0" devices="tripinfo_flow_0.62" vType="DEFAULT_VEHTYPE" speedFactor="1.02" vaporized=""/>
    <tripinfo id="flow_0.64" depart="231.00" departLane="start_0" departPos="5.10" departSpeed="13.02" departDelay="0.60" arrival="405.00" arrivalLane="end_0" arrivalPos="115.32" arrivalSpeed="12.20" duration="174.00" routeLength="996.05" waitingTime="52.00" waitingCount="3" stopTime="0.00" timeLoss="93.72" rerouteNo="0" devices="tripinfo_flow_0.64" vType="DEFAULT_VEHTYPE" speedFactor="0.94" vaporized=""/>
    <tripinfo id="flow_0.65" depart="234.00" departLane="start_0" departPos="5.10" departSpeed="12.26" departDelay="0.00" arrival="407.00" arrivalLane="end_0" arrivalPos="115.32" arrivalSpeed="12.07" duration="173.00" routeLength="996.05" waitingTime="49.00" waitingCount="2" stopTime="0.00" timeLoss="87.85" rerouteNo="0" devices="tripinfo_flow_0.65" vType="DEFAULT_VEHTYPE" speedFactor="0.88" vaporized=""/>
    <tripinfo id="flow_0.67" depart="242.00" departLane="start_0" departPos="5.10" departSpeed="12.70" departDelay="0.80" arrival="409.00" arrivalLane="end_0" arrivalPos="115.32" arrivalSpeed="12.27" duration="167.00" routeLength="996.05" waitingTime="48.00" waitingCount="2" stopTime="0.00" timeLoss="84.36" rerouteNo="0" devices="tripinfo_flow_0.67" vType="DEFAULT_VEHTYPE" speedFactor="0.91" vaporized=""/>