<?xml version="1.0" encoding="UTF-8"?>

<!-- generated on Mon Oct 19 14:10:14 2020 by Eclipse SUMO sumo Version v1_7_0+0644-c2b60a409c
This data file and the accompanying materials
are made available under the terms of the Eclipse Public License v2.0
which accompanies this distribution, and is available at
http://www.eclipse.org/legal/epl-v20.html
SPDX-License-Identifier: EPL-2.0
<configuration xmlns:xsi="http://www.w3.org/2001/XMLSchema-instance" xsi:noNamespaceSchemaLocation="http://sumo.dlr.de/xsd/sumoConfiguration.xsd">

    <input>
        <net-file value="net.net.xml"/>
        <additional-files value="input_routes.rou.xml"/>
    </input>

    <output>
        <write-license value="true"/>
        <tripinfo-output value="tripinfos.xml"/>
        <railsignal-block-output value="railsignal_blocks.xml"/>
    </output>

    <processing>
        <default.speeddev value="0"/>
        <pedestrian.model value="nonInteracting"/>
    </processing>

    <report>
        <xml-validation value="never"/>
        <xml-validation.routes value="never"/>
        <duration-log.disable value="true"/>
        <no-step-log value="true"/>
    </report>

    <mesoscopic>
        <mesosim value="true"/>
    </mesoscopic>

</configuration>
-->

<tripinfos xmlns:xsi="http://www.w3.org/2001/XMLSchema-instance" xsi:noNamespaceSchemaLocation="http://sumo.dlr.de/xsd/tripinfo_file.xsd">
    <tripinfo id="blocker" depart="0.00" departLane="" departPos="0.00" departSpeed="13.89" departDelay="0.00" arrival="129.00" arrivalLane="" arrivalPos="400.00" arrivalSpeed="0.93" duration="129.00" routeLength="400.00" waitingTime="0.00" waitingCount="0" stopTime="100.00" timeLoss="100.00" rerouteNo="1" devices="tripinfo_blocker routing_blocker" vType="train" speedFactor="1.00" vaporized=""/>
    <tripinfo id="t1" depart="0.00" departLane="" departPos="0.00" departSpeed="13.89" departDelay="0.00" arrival="136.00" arrivalLane="" arrivalPos="400.00" arrivalSpeed="13.89" duration="136.00" routeLength="941.29" waitingTime="68.23" waitingCount="0" stopTime="0.00" timeLoss="68.23" rerouteNo="1" devices="tripinfo_t1 routing_t1" vType="train" speedFactor="1.00" vaporized=""/>
    <tripinfo id="t0" depart="20.00" departLane="" departPos="0.00" departSpeed="13.89" departDelay="0.00" arrival="144.00" arrivalLane="" arrivalPos="400.00" arrivalSpeed="13.89" duration="124.00" routeLength="900.00" waitingTime="58.41" waitingCount="0" stopTime="0.00" timeLoss="58.41" rerouteNo="1" devices="tripinfo_t0 routing_t0" vType="train" speedFactor="1.00" vaporized=""/>
</tripinfos>
