<?xml version="1.0" encoding="UTF-8"?>

<!-- generated on 2026-05-22T11:58:15.934711+01:00 by Eclipse SUMO sumo v1_27_0+0012-3c8e26894b0
This data file and the accompanying materials
are made available under the terms of the Eclipse Public License v2.0
which accompanies this distribution, and is available at
http://www.eclipse.org/legal/epl-v20.html
This file may also be made available under the following Secondary
Licenses when the conditions for such availability set forth in the Eclipse
Public License 2.0 are satisfied: GNU General Public License, version 2
or later which is available at
https://www.gnu.org/licenses/old-licenses/gpl-2.0-standalone.html
SPDX-License-Identifier: EPL-2.0 OR GPL-2.0-or-later
<sumoConfiguration xmlns:xsi="http://www.w3.org/2001/XMLSchema-instance" xsi:noNamespaceSchemaLocation="http://sumo.dlr.de/xsd/sumoConfiguration.xsd">

    <input>
        <net-file value="net.net.xml"/>
        <route-files value="input_routes.rou.xml"/>
    </input>

    <output>
        <write-license value="true"/>
        <vehroute-output value="vehroutes.xml"/>
        <vehroute-output.cost value="true"/>
        <railsignal-block-output value="railsignal_blocks.xml"/>
    </output>

    <processing>
        <time-to-teleport.railsignal-deadlock value="200"/>
        <default.departspeed value="0"/>
        <default.departlane value="first"/>
        <default.speeddev value="0"/>
        <weights.reversal-penalty value="160"/>
    </processing>

    <report>
        <xml-validation value="never"/>
        <duration-log.disable value="true"/>
        <no-step-log value="true"/>
    </report>

    <mesoscopic>
        <mesosim value="true"/>
        <meso-junction-control value="true"/>
    </mesoscopic>

</sumoConfiguration>
-->

<railsignal-block-output>
    <departJunction id="0">
        <driveWay id="0.d0" vehicle="t0" edges="a b c d e -e -d -c -b2 -a2">
            <forward lanes="a_0 :1_1_0 b_0 :2_4_0 c_0 :gneJ5_2_0 d_0 :3_4_0 e_0 :gneJ6_3_0 -e_0 :3_0_0 -d_0 :gneJ5_0_0 -c_0 :2_1_0 -b2_0 :gneJ2_0_0 -a2_0"/>
            <bidi lanes="-a_0 :1_0_0 -b_0 :2_0_0 -c_0 :gneJ5_0_0 -d_0 :3_0_0 -e_0 e_0 :3_4_0 d_0 :gneJ5_2_0 c_0 :2_3_0 b2_0 :gneJ2_1_0 a2_0"/>
            <flank lanes=""/>
            <conflictLinks signals=""/>
            <foes driveWays="0.d0"/>
        </driveWay>
    </departJunction>
</railsignal-block-output>
