<?xml version="1.0" encoding="UTF-8"?>

<!-- generated on 2026-01-22T16:46:42.557007+01:00 by Eclipse SUMO sumo v1_25_0+1143-5cfd67bbee0
<sumoConfiguration xmlns:xsi="http://www.w3.org/2001/XMLSchema-instance" xsi:noNamespaceSchemaLocation="http://sumo.dlr.de/xsd/sumoConfiguration.xsd">

    <input>
        <net-file value="net.net.xml"/>
        <route-files value="input_routes2.rou.xml,input_routes.rou.xml"/>
    </input>

    <output>
        <tripinfo-output value="tripinfos.xml"/>
        <tripinfo-output.write-unfinished value="true"/>
        <statistic-output value="stats.xml"/>
    </output>

    <report>
        <no-step-log value="true"/>
    </report>

    <taxi_device>
        <device.taxi.dispatch-algorithm value="traci"/>
    </taxi_device>

    <traci_server>
        <remote-port value="42219"/>
    </traci_server>

</sumoConfiguration>
-->

<tripinfos xmlns:xsi="http://www.w3.org/2001/XMLSchema-instance" xsi:noNamespaceSchemaLocation="http://sumo.dlr.de/xsd/tripinfo_file.xsd">
    <tripinfo id="v1" depart="0.00" departLane="B0C0_1" departPos="5.10" departSpeed="0.00" departDelay="0.00" arrival="106.00" arrivalLane="C0D0_1" arrivalPos="285.60" arrivalSpeed="13.85" duration="106.00" routeLength="580.50" waitingTime="0.00" waitingCount="0" stopTime="56.00" timeLoss="4.65" rerouteNo="0" devices="tripinfo_v1" vType="DEFAULT_VEHTYPE" speedFactor="1.08" vaporized=""/>
    <personinfo id="0" depart="0.00" type="DEFAULT_PEDTYPE" speedFactor="1.06" duration="211.00" waitingTime="29.00" timeLoss="43.52" traveltime="182.00">
        <ride waitingTime="29.00" vehicle="v0" depart="29.00" arrival="211.00" arrivalPos="285.60" duration="182.00" routeLength="980.27" timeLoss="43.52"/>
    </personinfo>
    <personinfo id="1" depart="80.00" type="DEFAULT_PEDTYPE" speedFactor="0.94" duration="258.00" waitingTime="151.00" timeLoss="5.91" traveltime="107.00">
        <ride waitingTime="151.00" vehicle="v0" depart="231.00" arrival="338.00" arrivalPos="85.60" duration="107.00" routeLength="480.23" timeLoss="5.91"/>
    </personinfo>
    <tripinfo id="v0" depart="0.00" departLane="A0B0_1" departPos="5.10" departSpeed="0.00" departDelay="0.00" arrival="-1.00" arrivalLane="" arrivalPos="-1.00" arrivalSpeed="-1.00" duration="630.00" routeLength="1866.56" waitingTime="36.00" waitingCount="3" stopTime="415.00" timeLoss="56.38" rerouteNo="4" devices="tripinfo_v0 taxi_v0 person_v0" vType="taxi" speedFactor="1.01" vaporized="">
        <taxi customers="2" occupiedDistance="1460.50" occupiedTime="175.00"/>
    </tripinfo>
</tripinfos>
