<?xml version="1.0" encoding="UTF-8"?>

<!-- generated on 2024-09-03 17:36:50 by Eclipse SUMO sumo Version v1_20_0+0509-316c031f56e
This data file and the accompanying materials
are made available under the terms of the Eclipse Public License v2.0
which accompanies this distribution, and is available at
http://www.eclipse.org/legal/epl-v20.html
This file may also be made available under the following Secondary
Licenses when the conditions for such availability set forth in the Eclipse
Public License 2.0 are satisfied: GNU General Public License, version 2
or later which is available at
https://www.gnu.org/licenses/old-licenses/gpl-2.0-standalone.html
SPDX-License-Identifier: EPL-2.0 OR GPL-2.0-or-later
<configuration xmlns:xsi="http://www.w3.org/2001/XMLSchema-instance" xsi:noNamespaceSchemaLocation="http://sumo.dlr.de/xsd/sumoConfiguration.xsd">

    <input>
        <net-file value="net.net.xml"/>
        <route-files value="input_routes.rou.xml"/>
    </input>

    <output>
        <write-license value="true"/>
        <tripinfo-output value="tripinfos.xml"/>
        <railsignal-block-output value="railsignal_blocks.xml"/>
    </output>

    <processing>
        <default.speeddev value="0"/>
        <use-stop-ended value="true"/>
    </processing>

    <report>
        <xml-validation value="never"/>
        <duration-log.disable value="true"/>
        <no-step-log value="true"/>
    </report>

</configuration>
-->

<tripinfos xmlns:xsi="http://www.w3.org/2001/XMLSchema-instance" xsi:noNamespaceSchemaLocation="http://sumo.dlr.de/xsd/tripinfo_file.xsd">
    <tripinfo id="oncoming" depart="13.00" departLane="-e_0" departPos="50.10" departSpeed="0.00" departDelay="0.00" arrival="66.00" arrivalLane="-b_0" arrivalPos="100.00" arrivalSpeed="13.25" duration="53.00" routeLength="450.21" waitingTime="0.00" waitingCount="0" stopTime="0.00" timeLoss="27.24" rerouteNo="1" devices="tripinfo_oncoming routing_oncoming" vType="train" speedFactor="1.00" vaporized="teleport"/>
    <tripinfo id="ego" depart="0.00" departLane="b_0" departPos="50.10" departSpeed="0.00" departDelay="0.00" arrival="134.00" arrivalLane="e2_0" arrivalPos="99.34" arrivalSpeed="8.38" duration="134.00" routeLength="491.13" waitingTime="27.00" waitingCount="1" stopTime="10.00" timeLoss="88.22" rerouteNo="1" devices="tripinfo_ego routing_ego" vType="train" speedFactor="1.00" vaporized=""/>
</tripinfos>
