<?xml version="1.0" encoding="UTF-8"?>

<!-- generated on 2026-04-23T13:21:38.719586+01:00 by Eclipse SUMO sumo v1_26_0+1352-fc0eb841c93
<sumoConfiguration xmlns:xsi="http://www.w3.org/2001/XMLSchema-instance" xsi:noNamespaceSchemaLocation="http://sumo.dlr.de/xsd/sumoConfiguration.xsd">

    <input>
        <net-file value="data/OnlyNetQuickstart.net.xml"/>
        <additional-files value="data/OnlyNetQuickstart.add.xml"/>
    </input>

    <output>
        <tripinfo-output value="data/../tripinfo.xml"/>
    </output>

    <processing>
        <default.departspeed value="0"/>
        <default.departlane value="first"/>
    </processing>

    <report>
        <no-step-log value="true"/>
    </report>

    <traci_server>
        <remote-port value="33349"/>
    </traci_server>

</sumoConfiguration>
-->

<tripinfos xmlns:xsi="http://www.w3.org/2001/XMLSchema-instance" xsi:noNamespaceSchemaLocation="http://sumo.dlr.de/xsd/tripinfo_file.xsd">
    <tripinfo id="bus_1" depart="0.00" departLane="L12_1" departPos="0.00" departSpeed="0.00" departDelay="0.00" arrival="149.00" arrivalLane="L5_1" arrivalPos="115.32" arrivalSpeed="8.21" duration="149.00" routeLength="276.90" waitingTime="0.00" waitingCount="0" stopTime="100.00" timeLoss="16.18" rerouteNo="1" devices="tripinfo_bus_1 person_bus_1" vType="BUS" speedFactor="1.00" vaporized=""/>
    <personinfo id="P4" depart="0.00" type="DEFAULT_PEDTYPE" speedFactor="1.06" duration="1091.00" waitingTime="59.00" timeLoss="9.33" traveltime="32.00">
        <ride waitingTime="59.00" vehicle="bus_1" depart="59.00" arrival="91.00" arrivalPos="79.32" duration="32.00" routeLength="220.93" timeLoss="9.33"/>
        <stop duration="1000.00" arrival="1091.00" arrivalPos="79.34" actType="thinking"/>
    </personinfo>
    <personinfo id="P5" depart="20.00" type="DEFAULT_PEDTYPE" speedFactor="0.94" duration="1071.00" waitingTime="39.00" timeLoss="9.33" traveltime="32.00">
        <ride waitingTime="39.00" vehicle="bus_1" depart="59.00" arrival="91.00" arrivalPos="79.32" duration="32.00" routeLength="220.91" timeLoss="9.33"/>
        <stop duration="1000.00" arrival="1091.00" arrivalPos="79.34" actType="thinking"/>
    </personinfo>
</tripinfos>
