<?xml version="1.0"?>

<!-- generated on 10/08/09 12:26:53 by SUMO sumo Version dev-SVN-r7825
<configuration>

    <input>
        <net-file value="net.net.xml"/>
        <additional-files value="input_trips.trips.xml"/>
    </input>

    <output>
        <vehroute-output value="vehroutes.xml"/>
    </output>

    <time>
        <begin value="0"/>
    </time>

    <report>
        <no-duration-log value="true"/>
        <no-step-log value="true"/>
    </report>

    <routing>
        <device.routing.probability value="1"/>
    </routing>

</configuration>
-->

<routes>
    <vehicle id="0" depart="0" arrival="121">
        <replacedRoute replacedOnEdge="beg" replacedAtTime="0" edges="beg rend"/>
        <route edges="beg middle end rend"/>
   </vehicle>

    <vehicle id="1" depart="20" arrival="142">
        <replacedRoute replacedOnEdge="beg" replacedAtTime="0" edges="beg rend"/>
        <route edges="beg middle end rend"/>
   </vehicle>

    <vehicle id="2" depart="40" arrival="156">
        <replacedRoute replacedOnEdge="beg" replacedAtTime="0" edges="beg rend"/>
        <replacedRoute replacedOnEdge="beg" replacedAtTime="40" edges="beg middle end rend"/>
        <route edges="beg beg2left left left2end end rend"/>
   </vehicle>

    <vehicle id="3" depart="60" arrival="177">
        <replacedRoute replacedOnEdge="beg" replacedAtTime="0" edges="beg rend"/>
        <replacedRoute replacedOnEdge="beg" replacedAtTime="60" edges="beg middle end rend"/>
        <route edges="beg beg2left left left2end end rend"/>
   </vehicle>

    <vehicle id="4" depart="80" arrival="197">
        <replacedRoute replacedOnEdge="beg" replacedAtTime="0" edges="beg rend"/>
        <replacedRoute replacedOnEdge="beg" replacedAtTime="80" edges="beg middle end rend"/>
        <route edges="beg beg2left left left2end end rend"/>
   </vehicle>

    <vehicle id="5" depart="100" arrival="217">
        <replacedRoute replacedOnEdge="beg" replacedAtTime="0" edges="beg rend"/>
        <replacedRoute replacedOnEdge="beg" replacedAtTime="100" edges="beg middle end rend"/>
        <route edges="beg beg2left left left2end end rend"/>
   </vehicle>

    <vehicle id="6" depart="120" arrival="237">
        <replacedRoute replacedOnEdge="beg" replacedAtTime="0" edges="beg rend"/>
        <replacedRoute replacedOnEdge="beg" replacedAtTime="120" edges="beg middle end rend"/>
        <route edges="beg beg2left left left2end end rend"/>
   </vehicle>

    <vehicle id="7" depart="140" arrival="263">
        <replacedRoute replacedOnEdge="beg" replacedAtTime="0" edges="beg rend"/>
        <route edges="beg middle end rend"/>
   </vehicle>

    <vehicle id="8" depart="160" arrival="283">
        <replacedRoute replacedOnEdge="beg" replacedAtTime="0" edges="beg rend"/>
        <route edges="beg middle end rend"/>
   </vehicle>

    <vehicle id="9" depart="180" arrival="297">
        <replacedRoute replacedOnEdge="beg" replacedAtTime="0" edges="beg rend"/>
        <replacedRoute replacedOnEdge="beg" replacedAtTime="180" edges="beg middle end rend"/>
        <route edges="beg beg2left left left2end end rend"/>
   </vehicle>

</routes>
