<?xml version="1.0" encoding="UTF-8"?>

<!-- generated on Mon Feb 15 12:54:56 2021 by Eclipse SUMO sumo Version v1_8_0+1193-ffed992
<configuration xmlns:xsi="http://www.w3.org/2001/XMLSchema-instance" xsi:noNamespaceSchemaLocation="http://sumo.dlr.de/xsd/sumoConfiguration.xsd">

    <input>
        <net-file value="input_net2.net.xml"/>
    </input>

    <output>
        <vehroute-output value="vehroutes.xml"/>
    </output>

    <report>
        <no-step-log value="true"/>
    </report>

    <traci_server>
        <remote-port value="33125"/>
    </traci_server>

</configuration>
-->

<routes xmlns:xsi="http://www.w3.org/2001/XMLSchema-instance" xsi:noNamespaceSchemaLocation="http://sumo.dlr.de/xsd/routes_file.xsd">
    <vehicle id="ego" depart="0.00" arrival="24.00">
        <routeDistribution>
            <route replacedOnEdge="SC" reason="traci:setRoute" replacedAtTime="11.00" probability="0" edges="SC CN"/>
            <route edges="SC CN NC"/>
        </routeDistribution>
    </vehicle>

</routes>
