<?xml version="1.0" encoding="UTF-8"?>

<!-- generated on 02/22/17 15:29:47 by SUMO Version dev-SVN-r22878
<?xml version="1.0" encoding="UTF-8"?>

<configuration xmlns:xsi="http://www.w3.org/2001/XMLSchema-instance" xsi:noNamespaceSchemaLocation="http://sumo.dlr.de/xsd/sumoConfiguration.xsd">

    <input>
        <net-file value="net.net.xml"/>
        <route-files value="input_routes.rou.xml"/>
        <additional-files value="input_additional.add.xml"/>
    </input>

    <time>
        <begin value="0"/>
        <end value="3000"/>
    </time>

    <report>
        <xml-validation value="never"/>
        <duration-log.disable value="true"/>
        <no-step-log value="true"/>
    </report>

</configuration>
-->

<meandata xmlns:xsi="http://www.w3.org/2001/XMLSchema-instance" xsi:noNamespaceSchemaLocation="http://sumo.dlr.de/xsd/meandata_file.xsd">
    <interval begin="0.00" end="60.00" id="dump_60">
        <edge id="1/1to2/1" sampledSeconds="622.03" traveltime="60.64" overlapTraveltime="60.94" density="10.58" occupancy="5.29" waitingTime="19.00" speed="16.16" departed="21" arrived="0" entered="0" left="2" laneChangedFrom="0" laneChangedTo="0"/>
        <edge id="2/1to3/1" sampledSeconds="7.17" traveltime="50.15" overlapTraveltime="50.41" density="0.12" occupancy="0.06" waitingTime="0.00" speed="19.54" departed="0" arrived="0" entered="2" left="0" laneChangedFrom="0" laneChangedTo="0"/>
    </interval>
    <interval begin="60.00" end="120.00" id="dump_60">
        <edge id="1/1to2/1" sampledSeconds="1141.34" traveltime="57.17" overlapTraveltime="57.44" density="19.41" occupancy="9.71" waitingTime="20.00" speed="17.15" departed="20" arrived="0" entered="0" left="20" laneChangedFrom="0" laneChangedTo="0"/>
        <edge id="2/1to3/1" sampledSeconds="656.02" traveltime="51.93" overlapTraveltime="52.19" density="11.16" occupancy="5.58" waitingTime="0.00" speed="18.87" departed="0" arrived="0" entered="19" left="4" laneChangedFrom="0" laneChangedTo="0"/>
        <edge id="3/1to4/1" sampledSeconds="35.04" traveltime="50.47" overlapTraveltime="50.73" density="0.60" occupancy="0.30" waitingTime="0.00" speed="19.42" departed="0" arrived="0" entered="4" left="0" laneChangedFrom="0" laneChangedTo="0"/>
    </interval>
    <interval begin="120.00" end="180.00" id="dump_60">
        <edge id="1/1to2/1" sampledSeconds="1143.08" traveltime="57.18" overlapTraveltime="57.45" density="19.44" occupancy="9.72" waitingTime="20.00" speed="17.14" departed="20" arrived="0" entered="0" left="20" laneChangedFrom="0" laneChangedTo="0"/>
        <edge id="2/1to3/1" sampledSeconds="1054.15" traveltime="52.54" overlapTraveltime="52.81" density="17.93" occupancy="8.96" waitingTime="0.00" speed="18.65" departed="0" arrived="0" entered="20" left="20" laneChangedFrom="0" laneChangedTo="0"/>
        <edge id="3/1to4/1" sampledSeconds="754.32" traveltime="51.90" overlapTraveltime="52.17" density="12.83" occupancy="6.41" waitingTime="0.00" speed="18.88" departed="0" arrived="0" entered="20" left="7" laneChangedFrom="0" laneChangedTo="0"/>
        <edge id="4/1to5/1" sampledSeconds="83.39" traveltime="50.63" overlapTraveltime="50.89" density="1.42" occupancy="0.71" waitingTime="0.00" speed="19.36" departed="0" arrived="0" entered="7" left="0" laneChangedFrom="0" laneChangedTo="0"/>
    </interval>
    <interval begin="180.00" end="240.00" id="dump_60">
        <edge id="1/1to2/1" sampledSeconds="1143.08" traveltime="57.18" overlapTraveltime="57.45" density="19.44" occupancy="9.72" waitingTime="20.00" speed="17.14" departed="20" arrived="0" entered="0" left="20" laneChangedFrom="0" laneChangedTo="0"/>
        <edge id="2/1to3/1" sampledSeconds="1056.57" traveltime="52.56" overlapTraveltime="52.83" density="17.97" occupancy="8.98" waitingTime="0.00" speed="18.64" departed="0" arrived="0" entered="20" left="20" laneChangedFrom="0" laneChangedTo="0"/>
        <edge id="3/1to4/1" sampledSeconds="1054.06" traveltime="52.55" overlapTraveltime="52.82" density="17.93" occupancy="8.96" waitingTime="0.00" speed="18.65" departed="0" arrived="0" entered="20" left="19" laneChangedFrom="0" laneChangedTo="0"/>
        <edge id="4/1to5/1" sampledSeconds="831.10" traveltime="51.92" overlapTraveltime="52.18" density="14.14" occupancy="7.07" waitingTime="0.00" speed="18.88" departed="0" arrived="0" entered="19" left="9" laneChangedFrom="0" laneChangedTo="0"/>
        <edge id="5/1to6/1" sampledSeconds="152.35" traveltime="50.73" overlapTraveltime="50.98" density="2.59" occupancy="1.30" waitingTime="0.00" speed="19.32" departed="0" arrived="0" entered="9" left="0" laneChangedFrom="0" laneChangedTo="0"/>
    </interval>
    <interval begin="240.00" end="300.00" id="dump_60">
        <edge id="1/1to2/1" sampledSeconds="1143.08" traveltime="57.18" overlapTraveltime="57.45" density="19.44" occupancy="9.72" waitingTime="20.00" speed="17.14" departed="20" arrived="0" entered="0" left="20" laneChangedFrom="0" laneChangedTo="0"/>
        <edge id="2/1to3/1" sampledSeconds="1056.57" traveltime="52.56" overlapTraveltime="52.83" density="17.97" occupancy="8.98" waitingTime="0.00" speed="18.64" departed="0" arrived="0" entered="20" left="20" laneChangedFrom="0" laneChangedTo="0"/>
        <edge id="3/1to4/1" sampledSeconds="1056.83" traveltime="52.57" overlapTraveltime="52.84" density="17.97" occupancy="8.99" waitingTime="0.00" speed="18.64" departed="0" arrived="0" entered="20" left="20" laneChangedFrom="0" laneChangedTo="0"/>
        <edge id="4/1to5/1" sampledSeconds="1054.30" traveltime="52.56" overlapTraveltime="52.83" density="17.93" occupancy="8.97" waitingTime="0.00" speed="18.64" departed="0" arrived="0" entered="20" left="20" laneChangedFrom="0" laneChangedTo="0"/>
        <edge id="5/1to6/1" sampledSeconds="887.86" traveltime="51.95" overlapTraveltime="52.21" density="15.10" occupancy="7.55" waitingTime="0.00" speed="18.86" departed="0" arrived="0" entered="20" left="12" laneChangedFrom="0" laneChangedTo="0"/>
        <edge id="6/1to7/1" sampledSeconds="240.95" traveltime="50.79" overlapTraveltime="51.05" density="4.10" occupancy="2.05" waitingTime="0.00" speed="19.29" departed="0" arrived="0" entered="11" left="0" laneChangedFrom="0" laneChangedTo="0"/>
    </interval>
    <interval begin="300.00" end="360.00" id="dump_60">
        <edge id="1/1to2/1" sampledSeconds="1143.08" traveltime="57.18" overlapTraveltime="57.45" density="19.44" occupancy="9.72" waitingTime="20.00" speed="17.14" departed="20" arrived="0" entered="0" left="20" laneChangedFrom="0" laneChangedTo="0"/>
        <edge id="2/1to3/1" sampledSeconds="1056.57" traveltime="52.56" overlapTraveltime="52.83" density="17.97" occupancy="8.98" waitingTime="0.00" speed="18.64" departed="0" arrived="0" entered="20" left="20" laneChangedFrom="0" laneChangedTo="0"/>
        <edge id="3/1to4/1" sampledSeconds="1056.83" traveltime="52.57" overlapTraveltime="52.84" density="17.97" occupancy="8.99" waitingTime="0.00" speed="18.64" departed="0" arrived="0" entered="20" left="20" laneChangedFrom="0" laneChangedTo="0"/>
        <edge id="4/1to5/1" sampledSeconds="1057.07" traveltime="52.59" overlapTraveltime="52.85" density="17.98" occupancy="8.99" waitingTime="0.00" speed="18.64" departed="0" arrived="0" entered="20" left="20" laneChangedFrom="0" laneChangedTo="0"/>
        <edge id="5/1to6/1" sampledSeconds="1053.91" traveltime="52.58" overlapTraveltime="52.84" density="17.92" occupancy="8.96" waitingTime="0.00" speed="18.64" departed="0" arrived="0" entered="20" left="19" laneChangedFrom="0" laneChangedTo="0"/>
        <edge id="6/1to7/1" sampledSeconds="924.28" traveltime="52.00" overlapTraveltime="52.27" density="15.72" occupancy="7.86" waitingTime="0.00" speed="18.84" departed="0" arrived="0" entered="20" left="14" laneChangedFrom="0" laneChangedTo="0"/>
        <edge id="7/1to8/1" sampledSeconds="345.46" traveltime="50.85" overlapTraveltime="51.11" density="5.88" occupancy="2.94" waitingTime="0.00" speed="19.27" departed="0" arrived="0" entered="14" left="1" laneChangedFrom="0" laneChangedTo="0"/>
        <edge id="8/1to9/1" sampledSeconds="4.91" traveltime="50.00" overlapTraveltime="50.25" density="0.08" occupancy="0.04" waitingTime="0.00" speed="19.60" departed="0" arrived="0" entered="1" left="0" laneChangedFrom="0" laneChangedTo="0"/>
    </interval>
    <interval begin="360.00" end="420.00" id="dump_60">
        <edge id="1/1to2/1" sampledSeconds="1143.08" traveltime="57.18" overlapTraveltime="57.45" density="19.44" occupancy="9.72" waitingTime="20.00" speed="17.14" departed="20" arrived="0" entered="0" left="20" laneChangedFrom="0" laneChangedTo="0"/>
        <edge id="2/1to3/1" sampledSeconds="1056.57" traveltime="52.56" overlapTraveltime="52.83" density="17.97" occupancy="8.98" waitingTime="0.00" speed="18.64" departed="0" arrived="0" entered="20" left="20" laneChangedFrom="0" laneChangedTo="0"/>
        <edge id="3/1to4/1" sampledSeconds="1056.83" traveltime="52.57" overlapTraveltime="52.84" density="17.97" occupancy="8.99" waitingTime="0.00" speed="18.64" departed="0" arrived="0" entered="20" left="20" laneChangedFrom="0" laneChangedTo="0"/>
        <edge id="4/1to5/1" sampledSeconds="1057.07" traveltime="52.59" overlapTraveltime="52.85" density="17.98" occupancy="8.99" waitingTime="0.00" speed="18.64" departed="0" arrived="0" entered="20" left="20" laneChangedFrom="0" laneChangedTo="0"/>
        <edge id="5/1to6/1" sampledSeconds="1057.30" traveltime="52.60" overlapTraveltime="52.86" density="17.98" occupancy="8.99" waitingTime="0.00" speed="18.63" departed="0" arrived="0" entered="20" left="20" laneChangedFrom="0" laneChangedTo="0"/>
        <edge id="6/1to7/1" sampledSeconds="1054.45" traveltime="52.58" overlapTraveltime="52.85" density="17.93" occupancy="8.97" waitingTime="0.00" speed="18.64" departed="0" arrived="0" entered="20" left="20" laneChangedFrom="0" laneChangedTo="0"/>
        <edge id="7/1to8/1" sampledSeconds="944.63" traveltime="52.06" overlapTraveltime="52.33" density="16.07" occupancy="8.03" waitingTime="0.00" speed="18.82" departed="0" arrived="0" entered="20" left="15" laneChangedFrom="0" laneChangedTo="0"/>
        <edge id="8/1to9/1" sampledSeconds="451.48" traveltime="50.92" overlapTraveltime="51.18" density="7.68" occupancy="3.84" waitingTime="0.00" speed="19.25" departed="0" arrived="0" entered="15" left="3" laneChangedFrom="0" laneChangedTo="0"/>
        <edge id="9/1to10/1" sampledSeconds="23.12" traveltime="50.11" overlapTraveltime="50.37" density="0.39" occupancy="0.20" waitingTime="0.00" speed="19.56" departed="0" arrived="0" entered="3" left="0" laneChangedFrom="0" laneChangedTo="0"/>
    </interval>
    <interval begin="420.00" end="480.00" id="dump_60">
        <edge id="1/1to2/1" sampledSeconds="1143.08" traveltime="57.18" overlapTraveltime="57.45" density="19.44" occupancy="9.72" waitingTime="20.00" speed="17.14" departed="20" arrived="0" entered="0" left="20" laneChangedFrom="0" laneChangedTo="0"/>
        <edge id="10/1to1/1" sampledSeconds="57.48" traveltime="50.28" overlapTraveltime="50.53" density="0.98" occupancy="0.49" waitingTime="0.00" speed="19.49" departed="0" arrived="0" entered="5" left="0" laneChangedFrom="0" laneChangedTo="0"/>
        <edge id="2/1to3/1" sampledSeconds="1056.57" traveltime="52.56" overlapTraveltime="52.83" density="17.97" occupancy="8.98" waitingTime="0.00" speed="18.64" departed="0" arrived="0" entered="20" left="20" laneChangedFrom="0" laneChangedTo="0"/>
        <edge id="3/1to4/1" sampledSeconds="1056.83" traveltime="52.57" overlapTraveltime="52.84" density="17.97" occupancy="8.99" waitingTime="0.00" speed="18.64" departed="0" arrived="0" entered="20" left="20" laneChangedFrom="0" laneChangedTo="0"/>
        <edge id="4/1to5/1" sampledSeconds="1057.07" traveltime="52.59" overlapTraveltime="52.85" density="17.98" occupancy="8.99" waitingTime="0.00" speed="18.64" departed="0" arrived="0" entered="20" left="20" laneChangedFrom="0" laneChangedTo="0"/>
        <edge id="5/1to6/1" sampledSeconds="1057.30" traveltime="52.60" overlapTraveltime="52.86" density="17.98" occupancy="8.99" waitingTime="0.00" speed="18.63" departed="0" arrived="0" entered="20" left="20" laneChangedFrom="0" laneChangedTo="0"/>
        <edge id="6/1to7/1" sampledSeconds="1057.50" traveltime="52.61" overlapTraveltime="52.88" density="17.99" occupancy="8.99" waitingTime="0.00" speed="18.63" departed="0" arrived="0" entered="20" left="20" laneChangedFrom="0" laneChangedTo="0"/>
        <edge id="7/1to8/1" sampledSeconds="1054.08" traveltime="52.59" overlapTraveltime="52.86" density="17.93" occupancy="8.96" waitingTime="0.00" speed="18.63" departed="0" arrived="0" entered="20" left="20" laneChangedFrom="0" laneChangedTo="0"/>
        <edge id="8/1to9/1" sampledSeconds="959.00" traveltime="52.12" overlapTraveltime="52.38" density="16.31" occupancy="8.16" waitingTime="0.00" speed="18.80" departed="0" arrived="0" entered="20" left="16" laneChangedFrom="0" laneChangedTo="0"/>
        <edge id="9/1to10/1" sampledSeconds="548.05" traveltime="51.00" overlapTraveltime="51.26" density="9.32" occupancy="4.66" waitingTime="0.00" speed="19.21" departed="0" arrived="0" entered="16" left="5" laneChangedFrom="0" laneChangedTo="0"/>
    </interval>
    <interval begin="480.00" end="540.00" id="dump_60">
        <edge id="1/1to2/1" sampledSeconds="1133.65" traveltime="56.12" overlapTraveltime="56.39" density="19.28" occupancy="9.64" waitingTime="11.00" speed="17.47" departed="13" arrived="0" entered="6" left="20" laneChangedFrom="0" laneChangedTo="0"/>
        <edge id="10/1to1/1" sampledSeconds="642.11" traveltime="52.02" overlapTraveltime="52.35" density="10.92" occupancy="5.46" waitingTime="0.00" speed="18.81" departed="0" arrived="0" entered="16" left="6" laneChangedFrom="0" laneChangedTo="0"/>
        <edge id="2/1to3/1" sampledSeconds="1056.57" traveltime="52.56" overlapTraveltime="52.83" density="17.97" occupancy="8.98" waitingTime="0.00" speed="18.64" departed="0" arrived="0" entered="20" left="20" laneChangedFrom="0" laneChangedTo="0"/>
        <edge id="3/1to4/1" sampledSeconds="1056.83" traveltime="52.57" overlapTraveltime="52.84" density="17.97" occupancy="8.99" waitingTime="0.00" speed="18.64" departed="0" arrived="0" entered="20" left="20" laneChangedFrom="0" laneChangedTo="0"/>
        <edge id="4/1to5/1" sampledSeconds="1057.07" traveltime="52.59" overlapTraveltime="52.85" density="17.98" occupancy="8.99" waitingTime="0.00" speed="18.64" departed="0" arrived="0" entered="20" left="20" laneChangedFrom="0" laneChangedTo="0"/>
        <edge id="5/1to6/1" sampledSeconds="1057.30" traveltime="52.60" overlapTraveltime="52.86" density="17.98" occupancy="8.99" waitingTime="0.00" speed="18.63" departed="0" arrived="0" entered="20" left="20" laneChangedFrom="0" laneChangedTo="0"/>
        <edge id="6/1to7/1" sampledSeconds="1057.51" traveltime="52.61" overlapTraveltime="52.88" density="17.99" occupancy="8.99" waitingTime="0.00" speed="18.63" departed="0" arrived="0" entered="20" left="20" laneChangedFrom="0" laneChangedTo="0"/>
        <edge id="7/1to8/1" sampledSeconds="1057.70" traveltime="52.62" overlapTraveltime="52.88" density="17.99" occupancy="8.99" waitingTime="0.00" speed="18.62" departed="0" arrived="0" entered="20" left="20" laneChangedFrom="0" laneChangedTo="0"/>
        <edge id="8/1to9/1" sampledSeconds="1054.12" traveltime="52.60" overlapTraveltime="52.87" density="17.93" occupancy="8.96" waitingTime="0.00" speed="18.63" departed="0" arrived="0" entered="20" left="19" laneChangedFrom="0" laneChangedTo="0"/>
        <edge id="9/1to10/1" sampledSeconds="968.58" traveltime="52.16" overlapTraveltime="52.42" density="16.47" occupancy="8.24" waitingTime="0.00" speed="18.79" departed="0" arrived="0" entered="19" left="16" laneChangedFrom="0" laneChangedTo="0"/>
    </interval>
    <interval begin="540.00" end="600.00" id="dump_60">
        <edge id="1/1to2/1" sampledSeconds="1098.29" traveltime="53.76" overlapTraveltime="54.03" density="18.68" occupancy="9.34" waitingTime="1.00" speed="18.23" departed="2" arrived="0" entered="17" left="20" laneChangedFrom="0" laneChangedTo="0"/>
        <edge id="10/1to1/1" sampledSeconds="984.69" traveltime="52.54" overlapTraveltime="52.84" density="16.75" occupancy="8.37" waitingTime="0.00" speed="18.64" departed="0" arrived="0" entered="20" left="18" laneChangedFrom="0" laneChangedTo="0"/>
        <edge id="2/1to3/1" sampledSeconds="1066.72" traveltime="52.62" overlapTraveltime="52.89" density="18.14" occupancy="9.07" waitingTime="0.00" speed="18.62" departed="0" arrived="0" entered="21" left="20" laneChangedFrom="0" laneChangedTo="0"/>
        <edge id="3/1to4/1" sampledSeconds="1056.83" traveltime="52.57" overlapTraveltime="52.84" density="17.97" occupancy="8.99" waitingTime="0.00" speed="18.64" departed="0" arrived="0" entered="20" left="20" laneChangedFrom="0" laneChangedTo="0"/>
        <edge id="4/1to5/1" sampledSeconds="1057.07" traveltime="52.59" overlapTraveltime="52.85" density="17.98" occupancy="8.99" waitingTime="0.00" speed="18.64" departed="0" arrived="0" entered="20" left="20" laneChangedFrom="0" laneChangedTo="0"/>
        <edge id="5/1to6/1" sampledSeconds="1057.30" traveltime="52.60" overlapTraveltime="52.86" density="17.98" occupancy="8.99" waitingTime="0.00" speed="18.63" departed="0" arrived="0" entered="20" left="20" laneChangedFrom="0" laneChangedTo="0"/>
        <edge id="6/1to7/1" sampledSeconds="1057.51" traveltime="52.61" overlapTraveltime="52.88" density="17.99" occupancy="8.99" waitingTime="0.00" speed="18.63" departed="0" arrived="0" entered="20" left="20" laneChangedFrom="0" laneChangedTo="0"/>
        <edge id="7/1to8/1" sampledSeconds="1057.70" traveltime="52.62" overlapTraveltime="52.88" density="17.99" occupancy="8.99" waitingTime="0.00" speed="18.62" departed="0" arrived="0" entered="20" left="20" laneChangedFrom="0" laneChangedTo="0"/>
        <edge id="8/1to9/1" sampledSeconds="1057.87" traveltime="52.63" overlapTraveltime="52.89" density="17.99" occupancy="9.00" waitingTime="0.00" speed="18.62" departed="0" arrived="0" entered="20" left="20" laneChangedFrom="0" laneChangedTo="0"/>
        <edge id="9/1to10/1" sampledSeconds="1054.22" traveltime="52.61" overlapTraveltime="52.88" density="17.93" occupancy="8.96" waitingTime="0.00" speed="18.63" departed="0" arrived="0" entered="20" left="20" laneChangedFrom="0" laneChangedTo="0"/>
    </interval>
    <interval begin="600.00" end="660.00" id="dump_60">
        <edge id="1/1to2/1" sampledSeconds="1037.47" traveltime="52.57" overlapTraveltime="52.84" density="17.65" occupancy="8.82" waitingTime="0.00" speed="18.64" departed="0" arrived="0" entered="20" left="20" laneChangedFrom="0" laneChangedTo="0"/>
        <edge id="10/1to1/1" sampledSeconds="1053.82" traveltime="52.61" overlapTraveltime="52.88" density="17.92" occupancy="8.96" waitingTime="0.00" speed="18.63" departed="0" arrived="0" entered="20" left="19" laneChangedFrom="0" laneChangedTo="0"/>
        <edge id="2/1to3/1" sampledSeconds="1078.40" traveltime="52.77" overlapTraveltime="53.03" density="18.34" occupancy="9.17" waitingTime="0.00" speed="18.57" departed="0" arrived="0" entered="20" left="20" laneChangedFrom="0" laneChangedTo="0"/>
        <edge id="3/1to4/1" sampledSeconds="1065.98" traveltime="52.63" overlapTraveltime="52.90" density="18.13" occupancy="9.07" waitingTime="0.00" speed="18.62" departed="0" arrived="0" entered="20" left="20" laneChangedFrom="0" laneChangedTo="0"/>
        <edge id="4/1to5/1" sampledSeconds="1057.07" traveltime="52.59" overlapTraveltime="52.85" density="17.98" occupancy="8.99" waitingTime="0.00" speed="18.64" departed="0" arrived="0" entered="20" left="20" laneChangedFrom="0" laneChangedTo="0"/>
        <edge id="5/1to6/1" sampledSeconds="1057.30" traveltime="52.60" overlapTraveltime="52.86" density="17.98" occupancy="8.99" waitingTime="0.00" speed="18.63" departed="0" arrived="0" entered="20" left="20" laneChangedFrom="0" laneChangedTo="0"/>
        <edge id="6/1to7/1" sampledSeconds="1057.51" traveltime="52.61" overlapTraveltime="52.88" density="17.99" occupancy="8.99" waitingTime="0.00" speed="18.63" departed="0" arrived="0" entered="20" left="20" laneChangedFrom="0" laneChangedTo="0"/>
        <edge id="7/1to8/1" sampledSeconds="1057.70" traveltime="52.62" overlapTraveltime="52.88" density="17.99" occupancy="8.99" waitingTime="0.00" speed="18.62" departed="0" arrived="0" entered="20" left="20" laneChangedFrom="0" laneChangedTo="0"/>
        <edge id="8/1to9/1" sampledSeconds="1057.88" traveltime="52.63" overlapTraveltime="52.89" density="17.99" occupancy="9.00" waitingTime="0.00" speed="18.62" departed="0" arrived="0" entered="20" left="20" laneChangedFrom="0" laneChangedTo="0"/>
        <edge id="9/1to10/1" sampledSeconds="1058.03" traveltime="52.63" overlapTraveltime="52.90" density="17.99" occupancy="9.00" waitingTime="0.00" speed="18.62" departed="0" arrived="0" entered="20" left="20" laneChangedFrom="0" laneChangedTo="0"/>
    </interval>
    <interval begin="660.00" end="720.00" id="dump_60">
        <edge id="1/1to2/1" sampledSeconds="1054.31" traveltime="52.62" overlapTraveltime="52.89" density="17.93" occupancy="8.97" waitingTime="0.00" speed="18.62" departed="0" arrived="0" entered="20" left="20" laneChangedFrom="0" laneChangedTo="0"/>
        <edge id="10/1to1/1" sampledSeconds="1058.18" traveltime="52.64" overlapTraveltime="52.91" density="18.00" occupancy="9.00" waitingTime="0.00" speed="18.62" departed="0" arrived="0" entered="20" left="20" laneChangedFrom="0" laneChangedTo="0"/>
        <edge id="2/1to3/1" sampledSeconds="1038.00" traveltime="52.55" overlapTraveltime="52.82" density="17.65" occupancy="8.83" waitingTime="0.00" speed="18.65" departed="0" arrived="0" entered="20" left="20" laneChangedFrom="0" laneChangedTo="0"/>
        <edge id="3/1to4/1" sampledSeconds="1076.40" traveltime="52.75" overlapTraveltime="53.02" density="18.31" occupancy="9.15" waitingTime="0.00" speed="18.58" departed="0" arrived="0" entered="20" left="21" laneChangedFrom="0" laneChangedTo="0"/>
        <edge id="4/1to5/1" sampledSeconds="1065.96" traveltime="52.64" overlapTraveltime="52.91" density="18.13" occupancy="9.06" waitingTime="0.00" speed="18.62" departed="0" arrived="0" entered="21" left="20" laneChangedFrom="0" laneChangedTo="0"/>
        <edge id="5/1to6/1" sampledSeconds="1057.30" traveltime="52.60" overlapTraveltime="52.86" density="17.98" occupancy="8.99" waitingTime="0.00" speed="18.63" departed="0" arrived="0" entered="20" left="20" laneChangedFrom="0" laneChangedTo="0"/>
        <edge id="6/1to7/1" sampledSeconds="1057.51" traveltime="52.61" overlapTraveltime="52.88" density="17.99" occupancy="8.99" waitingTime="0.00" speed="18.63" departed="0" arrived="0" entered="20" left="20" laneChangedFrom="0" laneChangedTo="0"/>
        <edge id="7/1to8/1" sampledSeconds="1057.70" traveltime="52.62" overlapTraveltime="52.88" density="17.99" occupancy="8.99" waitingTime="0.00" speed="18.62" departed="0" arrived="0" entered="20" left="20" laneChangedFrom="0" laneChangedTo="0"/>
        <edge id="8/1to9/1" sampledSeconds="1057.88" traveltime="52.63" overlapTraveltime="52.89" density="17.99" occupancy="9.00" waitingTime="0.00" speed="18.62" departed="0" arrived="0" entered="20" left="20" laneChangedFrom="0" laneChangedTo="0"/>
        <edge id="9/1to10/1" sampledSeconds="1058.04" traveltime="52.63" overlapTraveltime="52.90" density="18.00" occupancy="9.00" waitingTime="0.00" speed="18.62" departed="0" arrived="0" entered="20" left="20" laneChangedFrom="0" laneChangedTo="0"/>
    </interval>
    <interval begin="720.00" end="780.00" id="dump_60">
        <edge id="1/1to2/1" sampledSeconds="1058.32" traveltime="52.65" overlapTraveltime="52.92" density="18.00" occupancy="9.00" waitingTime="0.00" speed="18.61" departed="0" arrived="0" entered="20" left="20" laneChangedFrom="0" laneChangedTo="0"/>
        <edge id="10/1to1/1" sampledSeconds="1058.19" traveltime="52.64" overlapTraveltime="52.91" density="18.00" occupancy="9.00" waitingTime="0.00" speed="18.62" departed="0" arrived="0" entered="20" left="20" laneChangedFrom="0" laneChangedTo="0"/>
        <edge id="2/1to3/1" sampledSeconds="1053.93" traveltime="52.62" overlapTraveltime="52.89" density="17.93" occupancy="8.96" waitingTime="0.00" speed="18.62" departed="0" arrived="0" entered="20" left="20" laneChangedFrom="0" laneChangedTo="0"/>
        <edge id="3/1to4/1" sampledSeconds="1039.24" traveltime="52.55" overlapTraveltime="52.82" density="17.68" occupancy="8.84" waitingTime="0.00" speed="18.65" departed="0" arrived="0" entered="20" left="20" laneChangedFrom="0" laneChangedTo="0"/>
        <edge id="4/1to5/1" sampledSeconds="1074.76" traveltime="52.75" overlapTraveltime="53.02" density="18.28" occupancy="9.14" waitingTime="0.00" speed="18.58" departed="0" arrived="0" entered="20" left="20" laneChangedFrom="0" laneChangedTo="0"/>
        <edge id="5/1to6/1" sampledSeconds="1065.60" traveltime="52.65" overlapTraveltime="52.92" density="18.12" occupancy="9.06" waitingTime="0.00" speed="18.61" departed="0" arrived="0" entered="20" left="20" laneChangedFrom="0" laneChangedTo="0"/>
        <edge id="6/1to7/1" sampledSeconds="1057.50" traveltime="52.61" overlapTraveltime="52.88" density="17.99" occupancy="8.99" waitingTime="0.00" speed="18.63" departed="0" arrived="0" entered="20" left="20" laneChangedFrom="0" laneChangedTo="0"/>
        <edge id="7/1to8/1" sampledSeconds="1057.70" traveltime="52.62" overlapTraveltime="52.88" density="17.99" occupancy="8.99" waitingTime="0.00" speed="18.62" departed="0" arrived="0" entered="20" left="20" laneChangedFrom="0" laneChangedTo="0"/>
        <edge id="8/1to9/1" sampledSeconds="1057.88" traveltime="52.63" overlapTraveltime="52.89" density="17.99" occupancy="9.00" waitingTime="0.00" speed="18.62" departed="0" arrived="0" entered="20" left="20" laneChangedFrom="0" laneChangedTo="0"/>
        <edge id="9/1to10/1" sampledSeconds="1058.04" traveltime="52.63" overlapTraveltime="52.90" density="18.00" occupancy="9.00" waitingTime="0.00" speed="18.62" departed="0" arrived="0" entered="20" left="20" laneChangedFrom="0" laneChangedTo="0"/>
    </interval>
    <interval begin="780.00" end="840.00" id="dump_60">
        <edge id="1/1to2/1" sampledSeconds="1058.33" traveltime="52.65" overlapTraveltime="52.92" density="18.00" occupancy="9.00" waitingTime="0.00" speed="18.61" departed="0" arrived="0" entered="20" left="20" laneChangedFrom="0" laneChangedTo="0"/>
        <edge id="10/1to1/1" sampledSeconds="1058.19" traveltime="52.64" overlapTraveltime="52.91" density="18.00" occupancy="9.00" waitingTime="0.00" speed="18.62" departed="0" arrived="0" entered="20" left="20" laneChangedFrom="0" laneChangedTo="0"/>
        <edge id="2/1to3/1" sampledSeconds="1058.44" traveltime="52.65" overlapTraveltime="52.92" density="18.00" occupancy="9.00" waitingTime="0.00" speed="18.61" departed="0" arrived="0" entered="20" left="20" laneChangedFrom="0" laneChangedTo="0"/>
        <edge id="3/1to4/1" sampledSeconds="1053.90" traveltime="52.63" overlapTraveltime="52.90" density="17.92" occupancy="8.96" waitingTime="0.00" speed="18.62" departed="0" arrived="0" entered="20" left="19" laneChangedFrom="0" laneChangedTo="0"/>
        <edge id="4/1to5/1" sampledSeconds="1039.64" traveltime="52.56" overlapTraveltime="52.83" density="17.68" occupancy="8.84" waitingTime="0.00" speed="18.64" departed="0" arrived="0" entered="19" left="20" laneChangedFrom="0" laneChangedTo="0"/>
        <edge id="5/1to6/1" sampledSeconds="1074.24" traveltime="52.75" overlapTraveltime="53.02" density="18.27" occupancy="9.14" waitingTime="0.00" speed="18.58" departed="0" arrived="0" entered="20" left="21" laneChangedFrom="0" laneChangedTo="0"/>
        <edge id="6/1to7/1" sampledSeconds="1064.79" traveltime="52.66" overlapTraveltime="52.93" density="18.11" occupancy="9.05" waitingTime="0.00" speed="18.61" departed="0" arrived="0" entered="21" left="20" laneChangedFrom="0" laneChangedTo="0"/>
        <edge id="7/1to8/1" sampledSeconds="1057.66" traveltime="52.62" overlapTraveltime="52.88" density="17.99" occupancy="8.99" waitingTime="0.00" speed="18.62" departed="0" arrived="0" entered="20" left="20" laneChangedFrom="0" laneChangedTo="0"/>
        <edge id="8/1to9/1" sampledSeconds="1057.88" traveltime="52.63" overlapTraveltime="52.89" density="17.99" occupancy="9.00" waitingTime="0.00" speed="18.62" departed="0" arrived="0" entered="20" left="20" laneChangedFrom="0" laneChangedTo="0"/>
        <edge id="9/1to10/1" sampledSeconds="1058.04" traveltime="52.63" overlapTraveltime="52.90" density="18.00" occupancy="9.00" waitingTime="0.00" speed="18.62" departed="0" arrived="0" entered="20" left="20" laneChangedFrom="0" laneChangedTo="0"/>
    </interval>
    <interval begin="840.00" end="900.00" id="dump_60">
        <edge id="1/1to2/1" sampledSeconds="1058.33" traveltime="52.65" overlapTraveltime="52.92" density="18.00" occupancy="9.00" waitingTime="0.00" speed="18.61" departed="0" arrived="0" entered="20" left="20" laneChangedFrom="0" laneChangedTo="0"/>
        <edge id="10/1to1/1" sampledSeconds="1058.19" traveltime="52.64" overlapTraveltime="52.91" density="18.00" occupancy="9.00" waitingTime="0.00" speed="18.62" departed="0" arrived="0" entered="20" left="20" laneChangedFrom="0" laneChangedTo="0"/>
        <edge id="2/1to3/1" sampledSeconds="1058.46" traveltime="52.65" overlapTraveltime="52.92" density="18.00" occupancy="9.00" waitingTime="0.00" speed="18.61" departed="0" arrived="0" entered="20" left="20" laneChangedFrom="0" laneChangedTo="0"/>
        <edge id="3/1to4/1" sampledSeconds="1058.55" traveltime="52.66" overlapTraveltime="52.93" density="18.00" occupancy="9.00" waitingTime="0.00" speed="18.61" departed="0" arrived="0" entered="20" left="20" laneChangedFrom="0" laneChangedTo="0"/>