<?xml version="1.0" encoding="UTF-8"?>

<!-- generated on 05/02/13 14:17:35 by SUMO sumo Version 0.17.0
<?xml version="1.0" encoding="UTF-8"?>

<configuration xmlns:xsi="http://www.w3.org/2001/XMLSchema-instance" xsi:noNamespaceSchemaLocation="http://sumo-sim.org/xsd/sumoConfiguration.xsd">

    <input>
        <net-file value="net.net.xml"/>
        <route-files value="input_routes.rou.xml"/>
        <additional-files value="input_additional.add.xml"/>
    </input>

    <time>
        <begin value="0"/>
        <end value="10000"/>
    </time>

    <report>
        <no-duration-log value="true"/>
        <no-step-log value="true"/>
    </report>

</configuration>
-->

<meandata xmlns:xsi="http://www.w3.org/2001/XMLSchema-instance" xsi:noNamespaceSchemaLocation="http://sumo-sim.org/xsd/meandata_file.xsd">
    <interval begin="0.00" end="60.00" id="dump_60">
        <edge id="1/1to2/1" sampledSeconds="621.09" traveltime="58.69" density="10.56" occupancy="5.28" waitingTime="19.00" speed="16.70" departed="21" arrived="0" entered="0" left="2" laneChangedFrom="0" laneChangedTo="0"/>
        <edge id="2/1to3/1" sampledSeconds="8.11" traveltime="50.00" density="0.14" occupancy="0.07" waitingTime="0.00" speed="19.60" departed="0" arrived="0" entered="2" left="0" laneChangedFrom="0" laneChangedTo="0"/>
    </interval>
    <interval begin="60.00" end="120.00" id="dump_60">
        <edge id="1/1to2/1" sampledSeconds="1096.71" traveltime="54.84" density="18.65" occupancy="9.33" waitingTime="20.00" speed="17.87" departed="20" arrived="0" entered="0" left="20" laneChangedFrom="0" laneChangedTo="0"/>
        <edge id="2/1to3/1" sampledSeconds="689.72" traveltime="50.01" density="11.73" occupancy="5.87" waitingTime="0.00" speed="19.59" departed="0" arrived="0" entered="20" left="6" laneChangedFrom="0" laneChangedTo="0"/>
        <edge id="3/1to4/1" sampledSeconds="46.18" traveltime="50.01" density="0.79" occupancy="0.39" waitingTime="0.00" speed="19.60" departed="0" arrived="0" entered="6" left="0" laneChangedFrom="0" laneChangedTo="0"/>
    </interval>
    <interval begin="120.00" end="180.00" id="dump_60">
        <edge id="1/1to2/1" sampledSeconds="1096.71" traveltime="54.84" density="18.65" occupancy="9.33" waitingTime="20.00" speed="17.87" departed="20" arrived="0" entered="0" left="20" laneChangedFrom="0" laneChangedTo="0"/>
        <edge id="2/1to3/1" sampledSeconds="1005.42" traveltime="50.02" density="17.10" occupancy="8.55" waitingTime="0.00" speed="19.59" departed="0" arrived="0" entered="20" left="20" laneChangedFrom="0" laneChangedTo="0"/>
        <edge id="3/1to4/1" sampledSeconds="815.84" traveltime="50.01" density="13.88" occupancy="6.94" waitingTime="0.00" speed="19.59" departed="0" arrived="0" entered="20" left="9" laneChangedFrom="0" laneChangedTo="0"/>
        <edge id="4/1to5/1" sampledSeconds="116.95" traveltime="50.01" density="1.99" occupancy="0.99" waitingTime="0.00" speed="19.59" departed="0" arrived="0" entered="9" left="0" laneChangedFrom="0" laneChangedTo="0"/>
    </interval>
    <interval begin="180.00" end="240.00" id="dump_60">
        <edge id="1/1to2/1" sampledSeconds="1096.71" traveltime="54.84" density="18.65" occupancy="9.33" waitingTime="20.00" speed="17.87" departed="20" arrived="0" entered="0" left="20" laneChangedFrom="0" laneChangedTo="0"/>
        <edge id="2/1to3/1" sampledSeconds="1005.42" traveltime="50.02" density="17.10" occupancy="8.55" waitingTime="0.00" speed="19.59" departed="0" arrived="0" entered="20" left="20" laneChangedFrom="0" laneChangedTo="0"/>
        <edge id="3/1to4/1" sampledSeconds="1005.42" traveltime="50.02" density="17.10" occupancy="8.55" waitingTime="0.00" speed="19.59" departed="0" arrived="0" entered="20" left="20" laneChangedFrom="0" laneChangedTo="0"/>
        <edge id="4/1to5/1" sampledSeconds="909.99" traveltime="50.01" density="15.48" occupancy="7.74" waitingTime="0.00" speed="19.59" departed="0" arrived="0" entered="20" left="12" laneChangedFrom="0" laneChangedTo="0"/>
        <edge id="5/1to6/1" sampledSeconds="219.71" traveltime="50.01" density="3.74" occupancy="1.87" waitingTime="0.00" speed="19.59" departed="0" arrived="0" entered="12" left="0" laneChangedFrom="0" laneChangedTo="0"/>
    </interval>
    <interval begin="240.00" end="300.00" id="dump_60">
        <edge id="1/1to2/1" sampledSeconds="1096.71" traveltime="54.84" density="18.65" occupancy="9.33" waitingTime="20.00" speed="17.87" departed="20" arrived="0" entered="0" left="20" laneChangedFrom="0" laneChangedTo="0"/>
        <edge id="2/1to3/1" sampledSeconds="1005.42" traveltime="50.02" density="17.10" occupancy="8.55" waitingTime="0.00" speed="19.59" departed="0" arrived="0" entered="20" left="20" laneChangedFrom="0" laneChangedTo="0"/>
        <edge id="3/1to4/1" sampledSeconds="1005.42" traveltime="50.02" density="17.10" occupancy="8.55" waitingTime="0.00" speed="19.59" departed="0" arrived="0" entered="20" left="20" laneChangedFrom="0" laneChangedTo="0"/>
        <edge id="4/1to5/1" sampledSeconds="1005.42" traveltime="50.02" density="17.10" occupancy="8.55" waitingTime="0.00" speed="19.59" departed="0" arrived="0" entered="20" left="20" laneChangedFrom="0" laneChangedTo="0"/>
        <edge id="5/1to6/1" sampledSeconds="972.15" traveltime="50.02" density="16.53" occupancy="8.27" waitingTime="0.00" speed="19.59" departed="0" arrived="0" entered="20" left="15" laneChangedFrom="0" laneChangedTo="0"/>
        <edge id="6/1to7/1" sampledSeconds="354.44" traveltime="50.01" density="6.03" occupancy="3.01" waitingTime="0.00" speed="19.59" departed="0" arrived="0" entered="15" left="0" laneChangedFrom="0" laneChangedTo="0"/>
    </interval>
    <interval begin="300.00" end="360.00" id="dump_60">
        <edge id="1/1to2/1" sampledSeconds="1096.71" traveltime="54.84" density="18.65" occupancy="9.33" waitingTime="20.00" speed="17.87" departed="20" arrived="0" entered="0" left="20" laneChangedFrom="0" laneChangedTo="0"/>
        <edge id="2/1to3/1" sampledSeconds="1005.42" traveltime="50.02" density="17.10" occupancy="8.55" waitingTime="0.00" speed="19.59" departed="0" arrived="0" entered="20" left="20" laneChangedFrom="0" laneChangedTo="0"/>
        <edge id="3/1to4/1" sampledSeconds="1005.42" traveltime="50.02" density="17.10" occupancy="8.55" waitingTime="0.00" speed="19.59" departed="0" arrived="0" entered="20" left="20" laneChangedFrom="0" laneChangedTo="0"/>
        <edge id="4/1to5/1" sampledSeconds="1005.42" traveltime="50.02" density="17.10" occupancy="8.55" waitingTime="0.00" speed="19.59" departed="0" arrived="0" entered="20" left="20" laneChangedFrom="0" laneChangedTo="0"/>
        <edge id="5/1to6/1" sampledSeconds="1005.42" traveltime="50.02" density="17.10" occupancy="8.55" waitingTime="0.00" speed="19.59" departed="0" arrived="0" entered="20" left="20" laneChangedFrom="0" laneChangedTo="0"/>
        <edge id="6/1to7/1" sampledSeconds="1002.02" traveltime="50.02" density="17.04" occupancy="8.52" waitingTime="0.00" speed="19.59" departed="0" arrived="0" entered="20" left="19" laneChangedFrom="0" laneChangedTo="0"/>
        <edge id="7/1to8/1" sampledSeconds="515.55" traveltime="50.01" density="8.77" occupancy="4.38" waitingTime="0.00" speed="19.59" departed="0" arrived="0" entered="19" left="2" laneChangedFrom="0" laneChangedTo="0"/>
        <edge id="8/1to9/1" sampledSeconds="6.22" traveltime="50.00" density="0.11" occupancy="0.05" waitingTime="0.00" speed="19.60" departed="0" arrived="0" entered="2" left="0" laneChangedFrom="0" laneChangedTo="0"/>
    </interval>
    <interval begin="360.00" end="420.00" id="dump_60">
        <edge id="1/1to2/1" sampledSeconds="1096.71" traveltime="54.84" density="18.65" occupancy="9.33" waitingTime="20.00" speed="17.87" departed="20" arrived="0" entered="0" left="20" laneChangedFrom="0" laneChangedTo="0"/>
        <edge id="2/1to3/1" sampledSeconds="1005.42" traveltime="50.02" density="17.10" occupancy="8.55" waitingTime="0.00" speed="19.59" departed="0" arrived="0" entered="20" left="20" laneChangedFrom="0" laneChangedTo="0"/>
        <edge id="3/1to4/1" sampledSeconds="1005.42" traveltime="50.02" density="17.10" occupancy="8.55" waitingTime="0.00" speed="19.59" departed="0" arrived="0" entered="20" left="20" laneChangedFrom="0" laneChangedTo="0"/>
        <edge id="4/1to5/1" sampledSeconds="1005.42" traveltime="50.02" density="17.10" occupancy="8.55" waitingTime="0.00" speed="19.59" departed="0" arrived="0" entered="20" left="20" laneChangedFrom="0" laneChangedTo="0"/>
        <edge id="5/1to6/1" sampledSeconds="1005.42" traveltime="50.02" density="17.10" occupancy="8.55" waitingTime="0.00" speed="19.59" departed="0" arrived="0" entered="20" left="20" laneChangedFrom="0" laneChangedTo="0"/>
        <edge id="6/1to7/1" sampledSeconds="1005.42" traveltime="50.02" density="17.10" occupancy="8.55" waitingTime="0.00" speed="19.59" departed="0" arrived="0" entered="20" left="20" laneChangedFrom="0" laneChangedTo="0"/>
        <edge id="7/1to8/1" sampledSeconds="1005.41" traveltime="50.02" density="17.10" occupancy="8.55" waitingTime="0.00" speed="19.59" departed="0" arrived="0" entered="20" left="20" laneChangedFrom="0" laneChangedTo="0"/>
        <edge id="8/1to9/1" sampledSeconds="674.25" traveltime="50.01" density="11.47" occupancy="5.73" waitingTime="0.00" speed="19.59" departed="0" arrived="0" entered="20" left="5" laneChangedFrom="0" laneChangedTo="0"/>
        <edge id="9/1to10/1" sampledSeconds="41.13" traveltime="50.01" density="0.70" occupancy="0.35" waitingTime="0.00" speed="19.60" departed="0" arrived="0" entered="5" left="0" laneChangedFrom="0" laneChangedTo="0"/>
    </interval>
    <interval begin="420.00" end="480.00" id="dump_60">
        <edge id="1/1to2/1" sampledSeconds="1096.71" traveltime="54.84" density="18.65" occupancy="9.33" waitingTime="20.00" speed="17.87" departed="20" arrived="0" entered="0" left="20" laneChangedFrom="0" laneChangedTo="0"/>
        <edge id="10/1to1/1" sampledSeconds="108.01" traveltime="50.01" density="1.84" occupancy="0.92" waitingTime="0.00" speed="19.59" departed="0" arrived="0" entered="8" left="0" laneChangedFrom="0" laneChangedTo="0"/>
        <edge id="2/1to3/1" sampledSeconds="1005.42" traveltime="50.02" density="17.10" occupancy="8.55" waitingTime="0.00" speed="19.59" departed="0" arrived="0" entered="20" left="20" laneChangedFrom="0" laneChangedTo="0"/>
        <edge id="3/1to4/1" sampledSeconds="1005.42" traveltime="50.02" density="17.10" occupancy="8.55" waitingTime="0.00" speed="19.59" departed="0" arrived="0" entered="20" left="20" laneChangedFrom="0" laneChangedTo="0"/>
        <edge id="4/1to5/1" sampledSeconds="1005.42" traveltime="50.02" density="17.10" occupancy="8.55" waitingTime="0.00" speed="19.59" departed="0" arrived="0" entered="20" left="20" laneChangedFrom="0" laneChangedTo="0"/>
        <edge id="5/1to6/1" sampledSeconds="1005.42" traveltime="50.02" density="17.10" occupancy="8.55" waitingTime="0.00" speed="19.59" departed="0" arrived="0" entered="20" left="20" laneChangedFrom="0" laneChangedTo="0"/>
        <edge id="6/1to7/1" sampledSeconds="1005.42" traveltime="50.02" density="17.10" occupancy="8.55" waitingTime="0.00" speed="19.59" departed="0" arrived="0" entered="20" left="20" laneChangedFrom="0" laneChangedTo="0"/>
        <edge id="7/1to8/1" sampledSeconds="1005.42" traveltime="50.02" density="17.10" occupancy="8.55" waitingTime="0.00" speed="19.59" departed="0" arrived="0" entered="20" left="20" laneChangedFrom="0" laneChangedTo="0"/>
        <edge id="8/1to9/1" sampledSeconds="1005.42" traveltime="50.02" density="17.10" occupancy="8.55" waitingTime="0.00" speed="19.59" departed="0" arrived="0" entered="20" left="20" laneChangedFrom="0" laneChangedTo="0"/>
        <edge id="9/1to10/1" sampledSeconds="804.26" traveltime="50.01" density="13.68" occupancy="6.84" waitingTime="0.00" speed="19.59" departed="0" arrived="0" entered="20" left="9" laneChangedFrom="0" laneChangedTo="0"/>
    </interval>
    <interval begin="480.00" end="540.00" id="dump_60">
        <edge id="1/1to2/1" sampledSeconds="1070.32" traveltime="52.11" density="18.20" occupancy="9.10" waitingTime="8.00" speed="18.80" departed="7" arrived="0" entered="12" left="20" laneChangedFrom="0" laneChangedTo="0"/>
        <edge id="10/1to1/1" sampledSeconds="901.66" traveltime="50.01" density="15.34" occupancy="7.67" waitingTime="0.00" speed="19.59" departed="0" arrived="0" entered="20" left="12" laneChangedFrom="0" laneChangedTo="0"/>
        <edge id="2/1to3/1" sampledSeconds="1005.42" traveltime="50.02" density="17.10" occupancy="8.55" waitingTime="0.00" speed="19.59" departed="0" arrived="0" entered="20" left="20" laneChangedFrom="0" laneChangedTo="0"/>
        <edge id="3/1to4/1" sampledSeconds="1005.42" traveltime="50.02" density="17.10" occupancy="8.55" waitingTime="0.00" speed="19.59" departed="0" arrived="0" entered="20" left="20" laneChangedFrom="0" laneChangedTo="0"/>
        <edge id="4/1to5/1" sampledSeconds="1005.42" traveltime="50.02" density="17.10" occupancy="8.55" waitingTime="0.00" speed="19.59" departed="0" arrived="0" entered="20" left="20" laneChangedFrom="0" laneChangedTo="0"/>
        <edge id="5/1to6/1" sampledSeconds="1005.42" traveltime="50.02" density="17.10" occupancy="8.55" waitingTime="0.00" speed="19.59" departed="0" arrived="0" entered="20" left="20" laneChangedFrom="0" laneChangedTo="0"/>
        <edge id="6/1to7/1" sampledSeconds="1005.42" traveltime="50.02" density="17.10" occupancy="8.55" waitingTime="0.00" speed="19.59" departed="0" arrived="0" entered="20" left="20" laneChangedFrom="0" laneChangedTo="0"/>
        <edge id="7/1to8/1" sampledSeconds="1005.42" traveltime="50.02" density="17.10" occupancy="8.55" waitingTime="0.00" speed="19.59" departed="0" arrived="0" entered="20" left="20" laneChangedFrom="0" laneChangedTo="0"/>
        <edge id="8/1to9/1" sampledSeconds="1005.42" traveltime="50.02" density="17.10" occupancy="8.55" waitingTime="0.00" speed="19.59" departed="0" arrived="0" entered="20" left="20" laneChangedFrom="0" laneChangedTo="0"/>
        <edge id="9/1to10/1" sampledSeconds="1005.42" traveltime="50.02" density="17.10" occupancy="8.55" waitingTime="0.00" speed="19.59" departed="0" arrived="0" entered="20" left="20" laneChangedFrom="0" laneChangedTo="0"/>
    </interval>
    <interval begin="540.00" end="600.00" id="dump_60">
        <edge id="1/1to2/1" sampledSeconds="1018.33" traveltime="50.02" density="17.32" occupancy="8.66" waitingTime="0.00" speed="19.59" departed="0" arrived="0" entered="20" left="21" laneChangedFrom="0" laneChangedTo="0"/>
        <edge id="10/1to1/1" sampledSeconds="1005.42" traveltime="50.02" density="17.10" occupancy="8.55" waitingTime="0.00" speed="19.59" departed="0" arrived="0" entered="20" left="20" laneChangedFrom="0" laneChangedTo="0"/>
        <edge id="2/1to3/1" sampledSeconds="1038.56" traveltime="50.02" density="17.66" occupancy="8.83" waitingTime="0.00" speed="19.59" departed="0" arrived="0" entered="21" left="20" laneChangedFrom="0" laneChangedTo="0"/>
        <edge id="3/1to4/1" sampledSeconds="1005.42" traveltime="50.02" density="17.10" occupancy="8.55" waitingTime="0.00" speed="19.59" departed="0" arrived="0" entered="20" left="20" laneChangedFrom="0" laneChangedTo="0"/>
        <edge id="4/1to5/1" sampledSeconds="1005.42" traveltime="50.02" density="17.10" occupancy="8.55" waitingTime="0.00" speed="19.59" departed="0" arrived="0" entered="20" left="20" laneChangedFrom="0" laneChangedTo="0"/>
        <edge id="5/1to6/1" sampledSeconds="1005.42" traveltime="50.02" density="17.10" occupancy="8.55" waitingTime="0.00" speed="19.59" departed="0" arrived="0" entered="20" left="20" laneChangedFrom="0" laneChangedTo="0"/>
        <edge id="6/1to7/1" sampledSeconds="1005.42" traveltime="50.02" density="17.10" occupancy="8.55" waitingTime="0.00" speed="19.59" departed="0" arrived="0" entered="20" left="20" laneChangedFrom="0" laneChangedTo="0"/>
        <edge id="7/1to8/1" sampledSeconds="1005.42" traveltime="50.02" density="17.10" occupancy="8.55" waitingTime="0.00" speed="19.59" departed="0" arrived="0" entered="20" left="20" laneChangedFrom="0" laneChangedTo="0"/>
        <edge id="8/1to9/1" sampledSeconds="1005.42" traveltime="50.02" density="17.10" occupancy="8.55" waitingTime="0.00" speed="19.59" departed="0" arrived="0" entered="20" left="20" laneChangedFrom="0" laneChangedTo="0"/>
        <edge id="9/1to10/1" sampledSeconds="1005.42" traveltime="50.02" density="17.10" occupancy="8.55" waitingTime="0.00" speed="19.59" departed="0" arrived="0" entered="20" left="20" laneChangedFrom="0" laneChangedTo="0"/>
    </interval>
    <interval begin="600.00" end="660.00" id="dump_60">
        <edge id="1/1to2/1" sampledSeconds="1005.42" traveltime="50.02" density="17.10" occupancy="8.55" waitingTime="0.00" speed="19.59" departed="0" arrived="0" entered="20" left="20" laneChangedFrom="0" laneChangedTo="0"/>
        <edge id="10/1to1/1" sampledSeconds="1005.42" traveltime="50.02" density="17.10" occupancy="8.55" waitingTime="0.00" speed="19.59" departed="0" arrived="0" entered="20" left="20" laneChangedFrom="0" laneChangedTo="0"/>
        <edge id="2/1to3/1" sampledSeconds="1010.72" traveltime="50.02" density="17.19" occupancy="8.60" waitingTime="0.00" speed="19.59" departed="0" arrived="0" entered="20" left="20" laneChangedFrom="0" laneChangedTo="0"/>
        <edge id="3/1to4/1" sampledSeconds="1044.47" traveltime="50.02" density="17.76" occupancy="8.88" waitingTime="0.00" speed="19.59" departed="0" arrived="0" entered="20" left="21" laneChangedFrom="0" laneChangedTo="0"/>
        <edge id="4/1to5/1" sampledSeconds="1007.12" traveltime="50.02" density="17.13" occupancy="8.56" waitingTime="0.00" speed="19.59" departed="0" arrived="0" entered="21" left="20" laneChangedFrom="0" laneChangedTo="0"/>
        <edge id="5/1to6/1" sampledSeconds="1005.42" traveltime="50.02" density="17.10" occupancy="8.55" waitingTime="0.00" speed="19.59" departed="0" arrived="0" entered="20" left="20" laneChangedFrom="0" laneChangedTo="0"/>
        <edge id="6/1to7/1" sampledSeconds="1005.42" traveltime="50.02" density="17.10" occupancy="8.55" waitingTime="0.00" speed="19.59" departed="0" arrived="0" entered="20" left="20" laneChangedFrom="0" laneChangedTo="0"/>
        <edge id="7/1to8/1" sampledSeconds="1005.42" traveltime="50.02" density="17.10" occupancy="8.55" waitingTime="0.00" speed="19.59" departed="0" arrived="0" entered="20" left="20" laneChangedFrom="0" laneChangedTo="0"/>
        <edge id="8/1to9/1" sampledSeconds="1005.42" traveltime="50.02" density="17.10" occupancy="8.55" waitingTime="0.00" speed="19.59" departed="0" arrived="0" entered="20" left="20" laneChangedFrom="0" laneChangedTo="0"/>
        <edge id="9/1to10/1" sampledSeconds="1005.42" traveltime="50.02" density="17.10" occupancy="8.55" waitingTime="0.00" speed="19.59" departed="0" arrived="0" entered="20" left="20" laneChangedFrom="0" laneChangedTo="0"/>
    </interval>
    <interval begin="660.00" end="720.00" id="dump_60">
        <edge id="1/1to2/1" sampledSeconds="1005.42" traveltime="50.02" density="17.10" occupancy="8.55" waitingTime="0.00" speed="19.59" departed="0" arrived="0" entered="20" left="20" laneChangedFrom="0" laneChangedTo="0"/>
        <edge id="10/1to1/1" sampledSeconds="1005.42" traveltime="50.02" density="17.10" occupancy="8.55" waitingTime="0.00" speed="19.59" departed="0" arrived="0" entered="20" left="20" laneChangedFrom="0" laneChangedTo="0"/>
        <edge id="2/1to3/1" sampledSeconds="1005.42" traveltime="50.02" density="17.10" occupancy="8.55" waitingTime="0.00" speed="19.59" departed="0" arrived="0" entered="20" left="20" laneChangedFrom="0" laneChangedTo="0"/>
        <edge id="3/1to4/1" sampledSeconds="1005.40" traveltime="50.02" density="17.10" occupancy="8.55" waitingTime="0.00" speed="19.59" departed="0" arrived="0" entered="20" left="20" laneChangedFrom="0" laneChangedTo="0"/>
        <edge id="4/1to5/1" sampledSeconds="1042.14" traveltime="50.02" density="17.72" occupancy="8.86" waitingTime="0.00" speed="19.59" departed="0" arrived="0" entered="20" left="21" laneChangedFrom="0" laneChangedTo="0"/>
        <edge id="5/1to6/1" sampledSeconds="1014.76" traveltime="50.02" density="17.26" occupancy="8.63" waitingTime="0.00" speed="19.59" departed="0" arrived="0" entered="21" left="20" laneChangedFrom="0" laneChangedTo="0"/>
        <edge id="6/1to7/1" sampledSeconds="1005.42" traveltime="50.02" density="17.10" occupancy="8.55" waitingTime="0.00" speed="19.59" departed="0" arrived="0" entered="20" left="20" laneChangedFrom="0" laneChangedTo="0"/>
        <edge id="7/1to8/1" sampledSeconds="1005.42" traveltime="50.02" density="17.10" occupancy="8.55" waitingTime="0.00" speed="19.59" departed="0" arrived="0" entered="20" left="20" laneChangedFrom="0" laneChangedTo="0"/>
        <edge id="8/1to9/1" sampledSeconds="1005.42" traveltime="50.02" density="17.10" occupancy="8.55" waitingTime="0.00" speed="19.59" departed="0" arrived="0" entered="20" left="20" laneChangedFrom="0" laneChangedTo="0"/>
        <edge id="9/1to10/1" sampledSeconds="1005.42" traveltime="50.02" density="17.10" occupancy="8.55" waitingTime="0.00" speed="19.59" departed="0" arrived="0" entered="20" left="20" laneChangedFrom="0" laneChangedTo="0"/>
    </interval>
    <interval begin="720.00" end="780.00" id="dump_60">
        <edge id="1/1to2/1" sampledSeconds="1005.42" traveltime="50.02" density="17.10" occupancy="8.55" waitingTime="0.00" speed="19.59" departed="0" arrived="0" entered="20" left="20" laneChangedFrom="0" laneChangedTo="0"/>
        <edge id="10/1to1/1" sampledSeconds="1005.42" traveltime="50.02" density="17.10" occupancy="8.55" waitingTime="0.00" speed="19.59" departed="0" arrived="0" entered="20" left="20" laneChangedFrom="0" laneChangedTo="0"/>
        <edge id="2/1to3/1" sampledSeconds="1005.42" traveltime="50.02" density="17.10" occupancy="8.55" waitingTime="0.00" speed="19.59" departed="0" arrived="0" entered="20" left="20" laneChangedFrom="0" laneChangedTo="0"/>
        <edge id="3/1to4/1" sampledSeconds="1005.42" traveltime="50.02" density="17.10" occupancy="8.55" waitingTime="0.00" speed="19.59" departed="0" arrived="0" entered="20" left="20" laneChangedFrom="0" laneChangedTo="0"/>
        <edge id="4/1to5/1" sampledSeconds="1005.42" traveltime="50.02" density="17.10" occupancy="8.55" waitingTime="0.00" speed="19.59" departed="0" arrived="0" entered="20" left="20" laneChangedFrom="0" laneChangedTo="0"/>
        <edge id="5/1to6/1" sampledSeconds="1034.49" traveltime="50.02" density="17.59" occupancy="8.80" waitingTime="0.00" speed="19.59" departed="0" arrived="0" entered="20" left="21" laneChangedFrom="0" laneChangedTo="0"/>
        <edge id="6/1to7/1" sampledSeconds="1022.39" traveltime="50.02" density="17.39" occupancy="8.69" waitingTime="0.00" speed="19.59" departed="0" arrived="0" entered="21" left="20" laneChangedFrom="0" laneChangedTo="0"/>
        <edge id="7/1to8/1" sampledSeconds="1005.42" traveltime="50.02" density="17.10" occupancy="8.55" waitingTime="0.00" speed="19.59" departed="0" arrived="0" entered="20" left="20" laneChangedFrom="0" laneChangedTo="0"/>
        <edge id="8/1to9/1" sampledSeconds="1005.42" traveltime="50.02" density="17.10" occupancy="8.55" waitingTime="0.00" speed="19.59" departed="0" arrived="0" entered="20" left="20" laneChangedFrom="0" laneChangedTo="0"/>
        <edge id="9/1to10/1" sampledSeconds="1005.42" traveltime="50.02" density="17.10" occupancy="8.55" waitingTime="0.00" speed="19.59" departed="0" arrived="0" entered="20" left="20" laneChangedFrom="0" laneChangedTo="0"/>
    </interval>
    <interval begin="780.00" end="840.00" id="dump_60">
        <edge id="1/1to2/1" sampledSeconds="1005.42" traveltime="50.02" density="17.10" occupancy="8.55" waitingTime="0.00" speed="19.59" departed="0" arrived="0" entered="20" left="20" laneChangedFrom="0" laneChangedTo="0"/>
        <edge id="10/1to1/1" sampledSeconds="1005.42" traveltime="50.02" density="17.10" occupancy="8.55" waitingTime="0.00" speed="19.59" departed="0" arrived="0" entered="20" left="20" laneChangedFrom="0" laneChangedTo="0"/>
        <edge id="2/1to3/1" sampledSeconds="1005.42" traveltime="50.02" density="17.10" occupancy="8.55" waitingTime="0.00" speed="19.59" departed="0" arrived="0" entered="20" left="20" laneChangedFrom="0" laneChangedTo="0"/>
        <edge id="3/1to4/1" sampledSeconds="1005.42" traveltime="50.02" density="17.10" occupancy="8.55" waitingTime="0.00" speed="19.59" departed="0" arrived="0" entered="20" left="20" laneChangedFrom="0" laneChangedTo="0"/>
        <edge id="4/1to5/1" sampledSeconds="1005.42" traveltime="50.02" density="17.10" occupancy="8.55" waitingTime="0.00" speed="19.59" departed="0" arrived="0" entered="20" left="20" laneChangedFrom="0" laneChangedTo="0"/>
        <edge id="5/1to6/1" sampledSeconds="1005.42" traveltime="50.02" density="17.10" occupancy="8.55" waitingTime="0.00" speed="19.59" departed="0" arrived="0" entered="20" left="20" laneChangedFrom="0" laneChangedTo="0"/>
        <edge id="6/1to7/1" sampledSeconds="1027.16" traveltime="50.02" density="17.47" occupancy="8.73" waitingTime="0.00" speed="19.59" departed="0" arrived="0" entered="20" left="20" laneChangedFrom="0" laneChangedTo="0"/>
        <edge id="7/1to8/1" sampledSeconds="1029.62" traveltime="50.02" density="17.51" occupancy="8.76" waitingTime="0.00" speed="19.59" departed="0" arrived="0" entered="20" left="20" laneChangedFrom="0" laneChangedTo="0"/>
        <edge id="8/1to9/1" sampledSeconds="1005.42" traveltime="50.02" density="17.10" occupancy="8.55" waitingTime="0.00" speed="19.59" departed="0" arrived="0" entered="20" left="20" laneChangedFrom="0" laneChangedTo="0"/>
        <edge id="9/1to10/1" sampledSeconds="1005.42" traveltime="50.02" density="17.10" occupancy="8.55" waitingTime="0.00" speed="19.59" departed="0" arrived="0" entered="20" left="20" laneChangedFrom="0" laneChangedTo="0"/>
    </interval>
    <interval begin="840.00" end="900.00" id="dump_60">
        <edge id="1/1to2/1" sampledSeconds="1005.42" traveltime="50.02" density="17.10" occupancy="8.55" waitingTime="0.00" speed="19.59" departed="0" arrived="0" entered="20" left="20" laneChangedFrom="0" laneChangedTo="0"/>
        <edge id="10/1to1/1" sampledSeconds="1005.42" traveltime="50.02" density="17.10" occupancy="8.55" waitingTime="0.00" speed="19.59" departed="0" arrived="0" entered="20" left="20" laneChangedFrom="0" laneChangedTo="0"/>
        <edge id="2/1to3/1" sampledSeconds="1005.42" traveltime="50.02" density="17.10" occupancy="8.55" waitingTime="0.00" speed="19.59" departed="0" arrived="0" entered="20" left="20" laneChangedFrom="0" laneChangedTo="0"/>
        <edge id="3/1to4/1" sampledSeconds="1005.42" traveltime="50.02" density="17.10" occupancy="8.55" waitingTime="0.00" speed="19.59" departed="0" arrived="0" entered="20" left="20" laneChangedFrom="0" laneChangedTo="0"/>
        <edge id="4/1to5/1" sampledSeconds="1005.42" traveltime="50.02" density="17.10" occupancy="8.55" waitingTime="0.00" speed="19.59" departed="0" arrived="0" entered="20" left="20" laneChangedFrom="0" laneChangedTo="0"/>
        <edge id="5/1to6/1" sampledSeconds="1005.42" traveltime="50.02" density="17.10" occupancy="8.55" waitingTime="0.00" speed="19.59" departed="0" arrived="0" entered="20" left="20" laneChangedFrom="0" laneChangedTo="0"/>
        <edge id="6/1to7/1" sampledSeconds="1005.42" traveltime="50.02" density="17.10" occupancy="8.55" waitingTime="0.00" speed="19.59" departed="0" arrived="0" entered="20" left="20" laneChangedFrom="0" laneChangedTo="0"/>
        <edge id="7/1to8/1" sampledSeconds="1019.91" traveltime="50.02" density="17.35" occupancy="8.67" waitingTime="0.00" speed="19.59" departed="0" arrived="0" entered="20" left="21" laneChangedFrom="0" laneChangedTo="0"/>
        <edge id="8/1to9/1" sampledSeconds="1036.97" traveltime="50.02" density="17.64" occupancy="8.82" waitingTime="0.00" speed="19.59" departed="0" arrived="0" entered="21" left="20" laneChangedFrom="0" laneChangedTo="0"/>
        <edge id="9/1to10/1" sampledSeconds="1005.42" traveltime="50.02" density="17.10" occupancy="8.55" waitingTime="0.00" speed="19.59" departed="0" arrived="0" entered="20" left="20" laneChangedFrom="0" laneChangedTo="0"/>
    </interval>
    <interval begin="900.00" end="960.00" id="dump_60">
        <edge id="1/1to2/1" sampledSeconds="1005.42" traveltime="50.02" density="17.10" occupancy="8.55" waitingTime="0.00" speed="19.59" departed="0" arrived="0" entered="20" left="20" laneChangedFrom="0" laneChangedTo="0"/>
        <edge id="10/1to1/1" sampledSeconds="1006.46" traveltime="50.02" density="17.12" occupancy="8.56" waitingTime="0.00" speed="19.59" departed="0" arrived="0" entered="21" left="20" laneChangedFrom="0" laneChangedTo="0"/>
        <edge id="2/1to3/1" sampledSeconds="1005.42" traveltime="50.02" density="17.10" occupancy="8.55" waitingTime="0.00" speed="19.59" departed="0" arrived="0" entered="20" left="20" laneChangedFrom="0" laneChangedTo="0"/>
        <edge id="3/1to4/1" sampledSeconds="1005.42" traveltime="50.02" density="17.10" occupancy="8.55" waitingTime="0.00" speed="19.59" departed="0" arrived="0" entered="20" left="20" laneChangedFrom="0" laneChangedTo="0"/>
        <edge id="4/1to5/1" sampledSeconds="1005.42" traveltime="50.02" density="17.10" occupancy="8.55" waitingTime="0.00" speed="19.59" departed="0" arrived="0" entered="20" left="20" laneChangedFrom="0" laneChangedTo="0"/>
        <edge id="5/1to6/1" sampledSeconds="1005.42" traveltime="50.02" density="17.10" occupancy="8.55" waitingTime="0.00" speed="19.59" departed="0" arrived="0" entered="20" left="20" laneChangedFrom="0" laneChangedTo="0"/>
        <edge id="6/1to7/1" sampledSeconds="1005.42" traveltime="50.02" density="17.10" occupancy="8.55" waitingTime="0.00" speed="19.59" departed="0" arrived="0" entered="20" left="20" laneChangedFrom="0" laneChangedTo="0"/>