<?xml version="1.0" encoding="UTF-8"?>

<!-- generated on 10/21/13 13:36:33 by SUMO sumo Version dev-SVN-rUNKNOWN
<?xml version="1.0" encoding="UTF-8"?>

<configuration xmlns:xsi="http://www.w3.org/2001/XMLSchema-instance" xsi:noNamespaceSchemaLocation="http://sumo-sim.org/xsd/sumoConfiguration.xsd">

    <input>
        <net-file value="net.net.xml"/>
        <additional-files value="input_routes.rou.xml,input_additional2.add.xml"/>
    </input>

    <output>
        <summary-output value="summary.xml"/>
    </output>

    <time>
        <begin value="0"/>
        <end value="1000"/>
    </time>

    <report>
        <no-duration-log value="true"/>
        <no-step-log value="true"/>
    </report>

</configuration>
-->

<summary>
    <step time="0.00" loaded="1" inserted="1" running="1" waiting="0" ended="0" meanWaitingTime="0.00" meanTravelTime="-1.00"/>
    <step time="1.00" loaded="1" inserted="1" running="1" waiting="0" ended="0" meanWaitingTime="0.00" meanTravelTime="-1.00"/>
    <step time="2.00" loaded="1" inserted="1" running="1" waiting="0" ended="0" meanWaitingTime="0.00" meanTravelTime="-1.00"/>
    <step time="3.00" loaded="1" inserted="1" running="1" waiting="0" ended="0" meanWaitingTime="0.00" meanTravelTime="-1.00"/>
    <step time="4.00" loaded="1" inserted="1" running="1" waiting="0" ended="0" meanWaitingTime="0.00" meanTravelTime="-1.00"/>
    <step time="5.00" loaded="1" inserted="1" running="1" waiting="0" ended="0" meanWaitingTime="0.00" meanTravelTime="-1.00"/>
    <step time="6.00" loaded="1" inserted="1" running="1" waiting="0" ended="0" meanWaitingTime="0.00" meanTravelTime="-1.00"/>
    <step time="7.00" loaded="1" inserted="1" running="1" waiting="0" ended="0" meanWaitingTime="0.00" meanTravelTime="-1.00"/>
    <step time="8.00" loaded="1" inserted="1" running="1" waiting="0" ended="0" meanWaitingTime="0.00" meanTravelTime="-1.00"/>
    <step time="9.00" loaded="1" inserted="1" running="1" waiting="0" ended="0" meanWaitingTime="0.00" meanTravelTime="-1.00"/>
    <step time="10.00" loaded="1" inserted="1" running="1" waiting="0" ended="0" meanWaitingTime="0.00" meanTravelTime="-1.00"/>
    <step time="11.00" loaded="1" inserted="1" running="1" waiting="0" ended="0" meanWaitingTime="0.00" meanTravelTime="-1.00"/>
    <step time="12.00" loaded="1" inserted="1" running="1" waiting="0" ended="0" meanWaitingTime="0.00" meanTravelTime="-1.00"/>
    <step time="13.00" loaded="1" inserted="1" running="1" waiting="0" ended="0" meanWaitingTime="0.00" meanTravelTime="-1.00"/>
    <step time="14.00" loaded="1" inserted="1" running="1" waiting="0" ended="0" meanWaitingTime="0.00" meanTravelTime="-1.00"/>
    <step time="15.00" loaded="1" inserted="1" running="1" waiting="0" ended="0" meanWaitingTime="0.00" meanTravelTime="-1.00"/>
    <step time="16.00" loaded="1" inserted="1" running="1" waiting="0" ended="0" meanWaitingTime="0.00" meanTravelTime="-1.00"/>
    <step time="17.00" loaded="1" inserted="1" running="1" waiting="0" ended="0" meanWaitingTime="0.00" meanTravelTime="-1.00"/>
    <step time="18.00" loaded="1" inserted="1" running="1" waiting="0" ended="0" meanWaitingTime="0.00" meanTravelTime="-1.00"/>
    <step time="19.00" loaded="1" inserted="1" running="1" waiting="0" ended="0" meanWaitingTime="0.00" meanTravelTime="-1.00"/>
    <step time="20.00" loaded="1" inserted="1" running="1" waiting="0" ended="0" meanWaitingTime="0.00" meanTravelTime="-1.00"/>
    <step time="21.00" loaded="1" inserted="1" running="1" waiting="0" ended="0" meanWaitingTime="0.00" meanTravelTime="-1.00"/>
    <step time="22.00" loaded="1" inserted="1" running="1" waiting="0" ended="0" meanWaitingTime="0.00" meanTravelTime="-1.00"/>
    <step time="23.00" loaded="1" inserted="1" running="1" waiting="0" ended="0" meanWaitingTime="0.00" meanTravelTime="-1.00"/>
    <step time="24.00" loaded="1" inserted="1" running="1" waiting="0" ended="0" meanWaitingTime="0.00" meanTravelTime="-1.00"/>
    <step time="25.00" loaded="1" inserted="1" running="1" waiting="0" ended="0" meanWaitingTime="0.00" meanTravelTime="-1.00"/>
    <step time="26.00" loaded="1" inserted="1" running="1" waiting="0" ended="0" meanWaitingTime="0.00" meanTravelTime="-1.00"/>
    <step time="27.00" loaded="1" inserted="1" running="1" waiting="0" ended="0" meanWaitingTime="0.00" meanTravelTime="-1.00"/>
    <step time="28.00" loaded="1" inserted="1" running="1" waiting="0" ended="0" meanWaitingTime="0.00" meanTravelTime="-1.00"/>
    <step time="29.00" loaded="1" inserted="1" running="1" waiting="0" ended="0" meanWaitingTime="0.00" meanTravelTime="-1.00"/>
    <step time="30.00" loaded="1" inserted="1" running="1" waiting="0" ended="0" meanWaitingTime="0.00" meanTravelTime="-1.00"/>
    <step time="31.00" loaded="1" inserted="1" running="1" waiting="0" ended="0" meanWaitingTime="0.00" meanTravelTime="-1.00"/>
    <step time="32.00" loaded="1" inserted="1" running="1" waiting="0" ended="0" meanWaitingTime="0.00" meanTravelTime="-1.00"/>
    <step time="33.00" loaded="1" inserted="1" running="1" waiting="0" ended="0" meanWaitingTime="0.00" meanTravelTime="-1.00"/>
    <step time="34.00" loaded="1" inserted="1" running="1" waiting="0" ended="0" meanWaitingTime="0.00" meanTravelTime="-1.00"/>
    <step time="35.00" loaded="1" inserted="1" running="1" waiting="0" ended="0" meanWaitingTime="0.00" meanTravelTime="-1.00"/>
    <step time="36.00" loaded="1" inserted="1" running="1" waiting="0" ended="0" meanWaitingTime="0.00" meanTravelTime="-1.00"/>
    <step time="37.00" loaded="1" inserted="1" running="1" waiting="0" ended="0" meanWaitingTime="0.00" meanTravelTime="-1.00"/>
    <step time="38.00" loaded="1" inserted="1" running="1" waiting="0" ended="0" meanWaitingTime="0.00" meanTravelTime="-1.00"/>
    <step time="39.00" loaded="1" inserted="1" running="1" waiting="0" ended="0" meanWaitingTime="0.00" meanTravelTime="-1.00"/>
    <step time="40.00" loaded="1" inserted="1" running="1" waiting="0" ended="0" meanWaitingTime="0.00" meanTravelTime="-1.00"/>
    <step time="41.00" loaded="1" inserted="1" running="1" waiting="0" ended="0" meanWaitingTime="0.00" meanTravelTime="-1.00"/>
    <step time="42.00" loaded="1" inserted="1" running="1" waiting="0" ended="0" meanWaitingTime="0.00" meanTravelTime="-1.00"/>
    <step time="43.00" loaded="1" inserted="1" running="1" waiting="0" ended="0" meanWaitingTime="0.00" meanTravelTime="-1.00"/>
    <step time="44.00" loaded="1" inserted="1" running="1" waiting="0" ended="0" meanWaitingTime="0.00" meanTravelTime="-1.00"/>
    <step time="45.00" loaded="1" inserted="1" running="1" waiting="0" ended="0" meanWaitingTime="0.00" meanTravelTime="-1.00"/>
    <step time="46.00" loaded="1" inserted="1" running="1" waiting="0" ended="0" meanWaitingTime="0.00" meanTravelTime="-1.00"/>
    <step time="47.00" loaded="1" inserted="1" running="1" waiting="0" ended="0" meanWaitingTime="0.00" meanTravelTime="-1.00"/>
    <step time="48.00" loaded="1" inserted="1" running="1" waiting="0" ended="0" meanWaitingTime="0.00" meanTravelTime="-1.00"/>
    <step time="49.00" loaded="1" inserted="1" running="1" waiting="0" ended="0" meanWaitingTime="0.00" meanTravelTime="-1.00"/>
    <step time="50.00" loaded="1" inserted="1" running="1" waiting="0" ended="0" meanWaitingTime="0.00" meanTravelTime="-1.00"/>
    <step time="51.00" loaded="1" inserted="1" running="1" waiting="0" ended="0" meanWaitingTime="0.00" meanTravelTime="-1.00"/>
    <step time="52.00" loaded="1" inserted="1" running="1" waiting="0" ended="0" meanWaitingTime="0.00" meanTravelTime="-1.00"/>
    <step time="53.00" loaded="1" inserted="1" running="1" waiting="0" ended="0" meanWaitingTime="0.00" meanTravelTime="-1.00"/>
    <step time="54.00" loaded="1" inserted="1" running="1" waiting="0" ended="0" meanWaitingTime="0.00" meanTravelTime="-1.00"/>
    <step time="55.00" loaded="1" inserted="1" running="1" waiting="0" ended="0" meanWaitingTime="0.00" meanTravelTime="-1.00"/>
    <step time="56.00" loaded="1" inserted="1" running="1" waiting="0" ended="0" meanWaitingTime="0.00" meanTravelTime="-1.00"/>
    <step time="57.00" loaded="1" inserted="1" running="1" waiting="0" ended="0" meanWaitingTime="0.00" meanTravelTime="-1.00"/>
    <step time="58.00" loaded="1" inserted="1" running="1" waiting="0" ended="0" meanWaitingTime="0.00" meanTravelTime="-1.00"/>
    <step time="59.00" loaded="1" inserted="1" running="1" waiting="0" ended="0" meanWaitingTime="0.00" meanTravelTime="-1.00"/>
    <step time="60.00" loaded="1" inserted="1" running="1" waiting="0" ended="0" meanWaitingTime="0.00" meanTravelTime="-1.00"/>
    <step time="61.00" loaded="1" inserted="1" running="1" waiting="0" ended="0" meanWaitingTime="0.00" meanTravelTime="-1.00"/>
    <step time="62.00" loaded="1" inserted="1" running="1" waiting="0" ended="0" meanWaitingTime="0.00" meanTravelTime="-1.00"/>
    <step time="63.00" loaded="1" inserted="1" running="1" waiting="0" ended="0" meanWaitingTime="0.00" meanTravelTime="-1.00"/>
    <step time="64.00" loaded="1" inserted="1" running="1" waiting="0" ended="0" meanWaitingTime="0.00" meanTravelTime="-1.00"/>
    <step time="65.00" loaded="1" inserted="1" running="1" waiting="0" ended="0" meanWaitingTime="0.00" meanTravelTime="-1.00"/>
    <step time="66.00" loaded="1" inserted="1" running="1" waiting="0" ended="0" meanWaitingTime="0.00" meanTravelTime="-1.00"/>
    <step time="67.00" loaded="1" inserted="1" running="1" waiting="0" ended="0" meanWaitingTime="0.00" meanTravelTime="-1.00"/>
    <step time="68.00" loaded="1" inserted="1" running="1" waiting="0" ended="0" meanWaitingTime="0.00" meanTravelTime="-1.00"/>
    <step time="69.00" loaded="1" inserted="1" running="1" waiting="0" ended="0" meanWaitingTime="0.00" meanTravelTime="-1.00"/>
    <step time="70.00" loaded="1" inserted="1" running="1" waiting="0" ended="0" meanWaitingTime="0.00" meanTravelTime="-1.00"/>
    <step time="71.00" loaded="1" inserted="1" running="1" waiting="0" ended="0" meanWaitingTime="0.00" meanTravelTime="-1.00"/>
    <step time="72.00" loaded="1" inserted="1" running="1" waiting="0" ended="0" meanWaitingTime="0.00" meanTravelTime="-1.00"/>
    <step time="73.00" loaded="1" inserted="1" running="1" waiting="0" ended="0" meanWaitingTime="0.00" meanTravelTime="-1.00"/>
    <step time="74.00" loaded="1" inserted="1" running="1" waiting="0" ended="0" meanWaitingTime="0.00" meanTravelTime="-1.00"/>
    <step time="75.00" loaded="1" inserted="1" running="1" waiting="0" ended="0" meanWaitingTime="0.00" meanTravelTime="-1.00"/>
    <step time="76.00" loaded="1" inserted="1" running="1" waiting="0" ended="0" meanWaitingTime="0.00" meanTravelTime="-1.00"/>
    <step time="77.00" loaded="1" inserted="1" running="1" waiting="0" ended="0" meanWaitingTime="0.00" meanTravelTime="-1.00"/>
    <step time="78.00" loaded="1" inserted="1" running="1" waiting="0" ended="0" meanWaitingTime="0.00" meanTravelTime="-1.00"/>
    <step time="79.00" loaded="1" inserted="1" running="1" waiting="0" ended="0" meanWaitingTime="0.00" meanTravelTime="-1.00"/>
    <step time="80.00" loaded="1" inserted="1" running="1" waiting="0" ended="0" meanWaitingTime="0.00" meanTravelTime="-1.00"/>
    <step time="81.00" loaded="1" inserted="1" running="1" waiting="0" ended="0" meanWaitingTime="0.00" meanTravelTime="-1.00"/>
    <step time="82.00" loaded="1" inserted="1" running="1" waiting="0" ended="0" meanWaitingTime="0.00" meanTravelTime="-1.00"/>
    <step time="83.00" loaded="1" inserted="1" running="1" waiting="0" ended="0" meanWaitingTime="0.00" meanTravelTime="-1.00"/>
    <step time="84.00" loaded="1" inserted="1" running="1" waiting="0" ended="0" meanWaitingTime="0.00" meanTravelTime="-1.00"/>
    <step time="85.00" loaded="1" inserted="1" running="1" waiting="0" ended="0" meanWaitingTime="0.00" meanTravelTime="-1.00"/>
    <step time="86.00" loaded="1" inserted="1" running="1" waiting="0" ended="0" meanWaitingTime="0.00" meanTravelTime="-1.00"/>
    <step time="87.00" loaded="1" inserted="1" running="1" waiting="0" ended="0" meanWaitingTime="0.00" meanTravelTime="-1.00"/>
    <step time="88.00" loaded="1" inserted="1" running="1" waiting="0" ended="0" meanWaitingTime="0.00" meanTravelTime="-1.00"/>
    <step time="89.00" loaded="1" inserted="1" running="1" waiting="0" ended="0" meanWaitingTime="0.00" meanTravelTime="-1.00"/>
    <step time="90.00" loaded="1" inserted="1" running="1" waiting="0" ended="0" meanWaitingTime="0.00" meanTravelTime="-1.00"/>
    <step time="91.00" loaded="1" inserted="1" running="1" waiting="0" ended="0" meanWaitingTime="0.00" meanTravelTime="-1.00"/>
    <step time="92.00" loaded="1" inserted="1" running="1" waiting="0" ended="0" meanWaitingTime="0.00" meanTravelTime="-1.00"/>
    <step time="93.00" loaded="1" inserted="1" running="1" waiting="0" ended="0" meanWaitingTime="0.00" meanTravelTime="-1.00"/>
    <step time="94.00" loaded="1" inserted="1" running="1" waiting="0" ended="0" meanWaitingTime="0.00" meanTravelTime="-1.00"/>
    <step time="95.00" loaded="1" inserted="1" running="1" waiting="0" ended="0" meanWaitingTime="0.00" meanTravelTime="-1.00"/>
    <step time="96.00" loaded="1" inserted="1" running="1" waiting="0" ended="0" meanWaitingTime="0.00" meanTravelTime="-1.00"/>
    <step time="97.00" loaded="1" inserted="1" running="1" waiting="0" ended="0" meanWaitingTime="0.00" meanTravelTime="-1.00"/>
    <step time="98.00" loaded="1" inserted="1" running="1" waiting="0" ended="0" meanWaitingTime="0.00" meanTravelTime="-1.00"/>
    <step time="99.00" loaded="1" inserted="1" running="1" waiting="0" ended="0" meanWaitingTime="0.00" meanTravelTime="-1.00"/>
    <step time="100.00" loaded="1" inserted="1" running="1" waiting="0" ended="0" meanWaitingTime="0.00" meanTravelTime="-1.00"/>
    <step time="101.00" loaded="1" inserted="1" running="1" waiting="0" ended="0" meanWaitingTime="0.00" meanTravelTime="-1.00"/>
    <step time="102.00" loaded="1" inserted="1" running="1" waiting="0" ended="0" meanWaitingTime="0.00" meanTravelTime="-1.00"/>
    <step time="103.00" loaded="1" inserted="1" running="1" waiting="0" ended="0" meanWaitingTime="0.00" meanTravelTime="-1.00"/>
    <step time="104.00" loaded="1" inserted="1" running="1" waiting="0" ended="0" meanWaitingTime="0.00" meanTravelTime="-1.00"/>
    <step time="105.00" loaded="1" inserted="1" running="1" waiting="0" ended="0" meanWaitingTime="0.00" meanTravelTime="-1.00"/>
    <step time="106.00" loaded="1" inserted="1" running="1" waiting="0" ended="0" meanWaitingTime="0.00" meanTravelTime="-1.00"/>
    <step time="107.00" loaded="1" inserted="1" running="1" waiting="0" ended="0" meanWaitingTime="0.00" meanTravelTime="-1.00"/>
    <step time="108.00" loaded="1" inserted="1" running="1" waiting="0" ended="0" meanWaitingTime="0.00" meanTravelTime="-1.00"/>
    <step time="109.00" loaded="1" inserted="1" running="1" waiting="0" ended="0" meanWaitingTime="0.00" meanTravelTime="-1.00"/>
    <step time="110.00" loaded="1" inserted="1" running="1" waiting="0" ended="0" meanWaitingTime="0.00" meanTravelTime="-1.00"/>
    <step time="111.00" loaded="1" inserted="1" running="1" waiting="0" ended="0" meanWaitingTime="0.00" meanTravelTime="-1.00"/>
    <step time="112.00" loaded="1" inserted="1" running="1" waiting="0" ended="0" meanWaitingTime="0.00" meanTravelTime="-1.00"/>
    <step time="113.00" loaded="1" inserted="1" running="1" waiting="0" ended="0" meanWaitingTime="0.00" meanTravelTime="-1.00"/>
    <step time="114.00" loaded="1" inserted="1" running="1" waiting="0" ended="0" meanWaitingTime="0.00" meanTravelTime="-1.00"/>
    <step time="115.00" loaded="1" inserted="1" running="1" waiting="0" ended="0" meanWaitingTime="0.00" meanTravelTime="-1.00"/>
    <step time="116.00" loaded="1" inserted="1" running="1" waiting="0" ended="0" meanWaitingTime="0.00" meanTravelTime="-1.00"/>
    <step time="117.00" loaded="1" inserted="1" running="1" waiting="0" ended="0" meanWaitingTime="0.00" meanTravelTime="-1.00"/>
    <step time="118.00" loaded="1" inserted="1" running="1" waiting="0" ended="0" meanWaitingTime="0.00" meanTravelTime="-1.00"/>
    <step time="119.00" loaded="1" inserted="1" running="1" waiting="0" ended="0" meanWaitingTime="0.00" meanTravelTime="-1.00"/>
    <step time="120.00" loaded="1" inserted="1" running="1" waiting="0" ended="0" meanWaitingTime="0.00" meanTravelTime="-1.00"/>
    <step time="121.00" loaded="1" inserted="1" running="1" waiting="0" ended="0" meanWaitingTime="0.00" meanTravelTime="-1.00"/>
    <step time="122.00" loaded="1" inserted="1" running="1" waiting="0" ended="0" meanWaitingTime="0.00" meanTravelTime="-1.00"/>
    <step time="123.00" loaded="1" inserted="1" running="1" waiting="0" ended="0" meanWaitingTime="0.00" meanTravelTime="-1.00"/>
    <step time="124.00" loaded="1" inserted="1" running="1" waiting="0" ended="0" meanWaitingTime="0.00" meanTravelTime="-1.00"/>
    <step time="125.00" loaded="1" inserted="1" running="1" waiting="0" ended="0" meanWaitingTime="0.00" meanTravelTime="-1.00"/>
    <step time="126.00" loaded="1" inserted="1" running="1" waiting="0" ended="0" meanWaitingTime="0.00" meanTravelTime="-1.00"/>
    <step time="127.00" loaded="1" inserted="1" running="1" waiting="0" ended="0" meanWaitingTime="0.00" meanTravelTime="-1.00"/>
    <step time="128.00" loaded="1" inserted="1" running="1" waiting="0" ended="0" meanWaitingTime="0.00" meanTravelTime="-1.00"/>
    <step time="129.00" loaded="1" inserted="1" running="1" waiting="0" ended="0" meanWaitingTime="0.00" meanTravelTime="-1.00"/>
    <step time="130.00" loaded="1" inserted="1" running="1" waiting="0" ended="0" meanWaitingTime="0.00" meanTravelTime="-1.00"/>
    <step time="131.00" loaded="1" inserted="1" running="1" waiting="0" ended="0" meanWaitingTime="0.00" meanTravelTime="-1.00"/>
    <step time="132.00" loaded="1" inserted="1" running="1" waiting="0" ended="0" meanWaitingTime="0.00" meanTravelTime="-1.00"/>
    <step time="133.00" loaded="1" inserted="1" running="1" waiting="0" ended="0" meanWaitingTime="0.00" meanTravelTime="-1.00"/>
    <step time="134.00" loaded="1" inserted="1" running="1" waiting="0" ended="0" meanWaitingTime="0.00" meanTravelTime="-1.00"/>
    <step time="135.00" loaded="1" inserted="1" running="1" waiting="0" ended="0" meanWaitingTime="0.00" meanTravelTime="-1.00"/>
    <step time="136.00" loaded="1" inserted="1" running="1" waiting="0" ended="0" meanWaitingTime="0.00" meanTravelTime="-1.00"/>
    <step time="137.00" loaded="1" inserted="1" running="1" waiting="0" ended="0" meanWaitingTime="0.00" meanTravelTime="-1.00"/>
    <step time="138.00" loaded="1" inserted="1" running="1" waiting="0" ended="0" meanWaitingTime="0.00" meanTravelTime="-1.00"/>
    <step time="139.00" loaded="1" inserted="1" running="1" waiting="0" ended="0" meanWaitingTime="0.00" meanTravelTime="-1.00"/>
    <step time="140.00" loaded="1" inserted="1" running="1" waiting="0" ended="0" meanWaitingTime="0.00" meanTravelTime="-1.00"/>
    <step time="141.00" loaded="1" inserted="1" running="1" waiting="0" ended="0" meanWaitingTime="0.00" meanTravelTime="-1.00"/>
    <step time="142.00" loaded="1" inserted="1" running="1" waiting="0" ended="0" meanWaitingTime="0.00" meanTravelTime="-1.00"/>
    <step time="143.00" loaded="1" inserted="1" running="1" waiting="0" ended="0" meanWaitingTime="0.00" meanTravelTime="-1.00"/>
    <step time="144.00" loaded="1" inserted="1" running="1" waiting="0" ended="0" meanWaitingTime="0.00" meanTravelTime="-1.00"/>
    <step time="145.00" loaded="1" inserted="1" running="1" waiting="0" ended="0" meanWaitingTime="0.00" meanTravelTime="-1.00"/>
    <step time="146.00" loaded="1" inserted="1" running="1" waiting="0" ended="0" meanWaitingTime="0.00" meanTravelTime="-1.00"/>
    <step time="147.00" loaded="1" inserted="1" running="0" waiting="0" ended="1" meanWaitingTime="0.00" meanTravelTime="147.00"/>
    <step time="148.00" loaded="1" inserted="1" running="0" waiting="0" ended="1" meanWaitingTime="0.00" meanTravelTime="147.00"/>
    <step time="149.00" loaded="1" inserted="1" running="0" waiting="0" ended="1" meanWaitingTime="0.00" meanTravelTime="147.00"/>
    <step time="150.00" loaded="1" inserted="1" running="0" waiting="0" ended="1" meanWaitingTime="0.00" meanTravelTime="147.00"/>
    <step time="151.00" loaded="1" inserted="1" running="0" waiting="0" ended="1" meanWaitingTime="0.00" meanTravelTime="147.00"/>
    <step time="152.00" loaded="1" inserted="1" running="0" waiting="0" ended="1" meanWaitingTime="0.00" meanTravelTime="147.00"/>
    <step time="153.00" loaded="1" inserted="1" running="0" waiting="0" ended="1" meanWaitingTime="0.00" meanTravelTime="147.00"/>
    <step time="154.00" loaded="1" inserted="1" running="0" waiting="0" ended="1" meanWaitingTime="0.00" meanTravelTime="147.00"/>
    <step time="155.00" loaded="1" inserted="1" running="0" waiting="0" ended="1" meanWaitingTime="0.00" meanTravelTime="147.00"/>
    <step time="156.00" loaded="1" inserted="1" running="0" waiting="0" ended="1" meanWaitingTime="0.00" meanTravelTime="147.00"/>
    <step time="157.00" loaded="1" inserted="1" running="0" waiting="0" ended="1" meanWaitingTime="0.00" meanTravelTime="147.00"/>
    <step time="158.00" loaded="1" inserted="1" running="0" waiting="0" ended="1" meanWaitingTime="0.00" meanTravelTime="147.00"/>
    <step time="159.00" loaded="1" inserted="1" running="0" waiting="0" ended="1" meanWaitingTime="0.00" meanTravelTime="147.00"/>
    <step time="160.00" loaded="1" inserted="1" running="0" waiting="0" ended="1" meanWaitingTime="0.00" meanTravelTime="147.00"/>
    <step time="161.00" loaded="1" inserted="1" running="0" waiting="0" ended="1" meanWaitingTime="0.00" meanTravelTime="147.00"/>
    <step time="162.00" loaded="1" inserted="1" running="0" waiting="0" ended="1" meanWaitingTime="0.00" meanTravelTime="147.00"/>
    <step time="163.00" loaded="1" inserted="1" running="0" waiting="0" ended="1" meanWaitingTime="0.00" meanTravelTime="147.00"/>
    <step time="164.00" loaded="1" inserted="1" running="0" waiting="0" ended="1" meanWaitingTime="0.00" meanTravelTime="147.00"/>
    <step time="165.00" loaded="1" inserted="1" running="0" waiting="0" ended="1" meanWaitingTime="0.00" meanTravelTime="147.00"/>
    <step time="166.00" loaded="1" inserted="1" running="0" waiting="0" ended="1" meanWaitingTime="0.00" meanTravelTime="147.00"/>
    <step time="167.00" loaded="1" inserted="1" running="0" waiting="0" ended="1" meanWaitingTime="0.00" meanTravelTime="147.00"/>
    <step time="168.00" loaded="1" inserted="1" running="0" waiting="0" ended="1" meanWaitingTime="0.00" meanTravelTime="147.00"/>
    <step time="169.00" loaded="1" inserted="1" running="0" waiting="0" ended="1" meanWaitingTime="0.00" meanTravelTime="147.00"/>
    <step time="170.00" loaded="1" inserted="1" running="0" waiting="0" ended="1" meanWaitingTime="0.00" meanTravelTime="147.00"/>
    <step time="171.00" loaded="1" inserted="1" running="0" waiting="0" ended="1" meanWaitingTime="0.00" meanTravelTime="147.00"/>
    <step time="172.00" loaded="1" inserted="1" running="0" waiting="0" ended="1" meanWaitingTime="0.00" meanTravelTime="147.00"/>
    <step time="173.00" loaded="1" inserted="1" running="0" waiting="0" ended="1" meanWaitingTime="0.00" meanTravelTime="147.00"/>
    <step time="174.00" loaded="1" inserted="1" running="0" waiting="0" ended="1" meanWaitingTime="0.00" meanTravelTime="147.00"/>
    <step time="175.00" loaded="1" inserted="1" running="0" waiting="0" ended="1" meanWaitingTime="0.00" meanTravelTime="147.00"/>
    <step time="176.00" loaded="1" inserted="1" running="0" waiting="0" ended="1" meanWaitingTime="0.00" meanTravelTime="147.00"/>
    <step time="177.00" loaded="1" inserted="1" running="0" waiting="0" ended="1" meanWaitingTime="0.00" meanTravelTime="147.00"/>
    <step time="178.00" loaded="1" inserted="1" running="0" waiting="0" ended="1" meanWaitingTime="0.00" meanTravelTime="147.00"/>
    <step time="179.00" loaded="1" inserted="1" running="0" waiting="0" ended="1" meanWaitingTime="0.00" meanTravelTime="147.00"/>
    <step time="180.00" loaded="1" inserted="1" running="0" waiting="0" ended="1" meanWaitingTime="0.00" meanTravelTime="147.00"/>
    <step time="181.00" loaded="1" inserted="1" running="0" waiting="0" ended="1" meanWaitingTime="0.00" meanTravelTime="147.00"/>
    <step time="182.00" loaded="1" inserted="1" running="0" waiting="0" ended="1" meanWaitingTime="0.00" meanTravelTime="147.00"/>
    <step time="183.00" loaded="1" inserted="1" running="0" waiting="0" ended="1" meanWaitingTime="0.00" meanTravelTime="147.00"/>
    <step time="184.00" loaded="1" inserted="1" running="0" waiting="0" ended="1" meanWaitingTime="0.00" meanTravelTime="147.00"/>
    <step time="185.00" loaded="1" inserted="1" running="0" waiting="0" ended="1" meanWaitingTime="0.00" meanTravelTime="147.00"/>
    <step time="186.00" loaded="1" inserted="1" running="0" waiting="0" ended="1" meanWaitingTime="0.00" meanTravelTime="147.00"/>
    <step time="187.00" loaded="1" inserted="1" running="0" waiting="0" ended="1" meanWaitingTime="0.00" meanTravelTime="147.00"/>
    <step time="188.00" loaded="1" inserted="1" running="0" waiting="0" ended="1" meanWaitingTime="0.00" meanTravelTime="147.00"/>
    <step time="189.00" loaded="1" inserted="1" running="0" waiting="0" ended="1" meanWaitingTime="0.00" meanTravelTime="147.00"/>
    <step time="190.00" loaded="1" inserted="1" running="0" waiting="0" ended="1" meanWaitingTime="0.00" meanTravelTime="147.00"/>
    <step time="191.00" loaded="1" inserted="1" running="0" waiting="0" ended="1" meanWaitingTime="0.00" meanTravelTime="147.00"/>
    <step time="192.00" loaded="1" inserted="1" running="0" waiting="0" ended="1" meanWaitingTime="0.00" meanTravelTime="147.00"/>
    <step time="193.00" loaded="1" inserted="1" running="0" waiting="0" ended="1" meanWaitingTime="0.00" meanTravelTime="147.00"/>
    <step time="194.00" loaded="1" inserted="1" running="0" waiting="0" ended="1" meanWaitingTime="0.00" meanTravelTime="147.00"/>
    <step time="195.00" loaded="1" inserted="1" running="0" waiting="0" ended="1" meanWaitingTime="0.00" meanTravelTime="147.00"/>
    <step time="196.00" loaded="1" inserted="1" running="0" waiting="0" ended="1" meanWaitingTime="0.00" meanTravelTime="147.00"/>
    <step time="197.00" loaded="1" inserted="1" running="0" waiting="0" ended="1" meanWaitingTime="0.00" meanTravelTime="147.00"/>
    <step time="198.00" loaded="1" inserted="1" running="0" waiting="0" ended="1" meanWaitingTime="0.00" meanTravelTime="147.00"/>
    <step time="199.00" loaded="1" inserted="1" running="0" waiting="0" ended="1" meanWaitingTime="0.00" meanTravelTime="147.00"/>
    <step time="200.00" loaded="1" inserted="1" running="0" waiting="0" ended="1" meanWaitingTime="0.00" meanTravelTime="147.00"/>
    <step time="201.00" loaded="1" inserted="1" running="0" waiting="0" ended="1" meanWaitingTime="0.00" meanTravelTime="147.00"/>
    <step time="202.00" loaded="1" inserted="1" running="0" waiting="0" ended="1" meanWaitingTime="0.00" meanTravelTime="147.00"/>
    <step time="203.00" loaded="1" inserted="1" running="0" waiting="0" ended="1" meanWaitingTime="0.00" meanTravelTime="147.00"/>
    <step time="204.00" loaded="1" inserted="1" running="0" waiting="0" ended="1" meanWaitingTime="0.00" meanTravelTime="147.00"/>
    <step time="205.00" loaded="1" inserted="1" running="0" waiting="0" ended="1" meanWaitingTime="0.00" meanTravelTime="147.00"/>
    <step time="206.00" loaded="1" inserted="1" running="0" waiting="0" ended="1" meanWaitingTime="0.00" meanTravelTime="147.00"/>
    <step time="207.00" loaded="1" inserted="1" running="0" waiting="0" ended="1" meanWaitingTime="0.00" meanTravelTime="147.00"/>
    <step time="208.00" loaded="1" inserted="1" running="0" waiting="0" ended="1" meanWaitingTime="0.00" meanTravelTime="147.00"/>
    <step time="209.00" loaded="1" inserted="1" running="0" waiting="0" ended="1" meanWaitingTime="0.00" meanTravelTime="147.00"/>
    <step time="210.00" loaded="1" inserted="1" running="0" waiting="0" ended="1" meanWaitingTime="0.00" meanTravelTime="147.00"/>
    <step time="211.00" loaded="1" inserted="1" running="0" waiting="0" ended="1" meanWaitingTime="0.00" meanTravelTime="147.00"/>
    <step time="212.00" loaded="1" inserted="1" running="0" waiting="0" ended="1" meanWaitingTime="0.00" meanTravelTime="147.00"/>
    <step time="213.00" loaded="1" inserted="1" running="0" waiting="0" ended="1" meanWaitingTime="0.00" meanTravelTime="147.00"/>
    <step time="214.00" loaded="1" inserted="1" running="0" waiting="0" ended="1" meanWaitingTime="0.00" meanTravelTime="147.00"/>
    <step time="215.00" loaded="1" inserted="1" running="0" waiting="0" ended="1" meanWaitingTime="0.00" meanTravelTime="147.00"/>
    <step time="216.00" loaded="1" inserted="1" running="0" waiting="0" ended="1" meanWaitingTime="0.00" meanTravelTime="147.00"/>
    <step time="217.00" loaded="1" inserted="1" running="0" waiting="0" ended="1" meanWaitingTime="0.00" meanTravelTime="147.00"/>
    <step time="218.00" loaded="1" inserted="1" running="0" waiting="0" ended="1" meanWaitingTime="0.00" meanTravelTime="147.00"/>
    <step time="219.00" loaded="1" inserted="1" running="0" waiting="0" ended="1" meanWaitingTime="0.00" meanTravelTime="147.00"/>
    <step time="220.00" loaded="1" inserted="1" running="0" waiting="0" ended="1" meanWaitingTime="0.00" meanTravelTime="147.00"/>
    <step time="221.00" loaded="1" inserted="1" running="0" waiting="0" ended="1" meanWaitingTime="0.00" meanTravelTime="147.00"/>
    <step time="222.00" loaded="1" inserted="1" running="0" waiting="0" ended="1" meanWaitingTime="0.00" meanTravelTime="147.00"/>
    <step time="223.00" loaded="1" inserted="1" running="0" waiting="0" ended="1" meanWaitingTime="0.00" meanTravelTime="147.00"/>
    <step time="224.00" loaded="1" inserted="1" running="0" waiting="0" ended="1" meanWaitingTime="0.00" meanTravelTime="147.00"/>