<?xml version="1.0" encoding="UTF-8"?>

<!-- generated on 2023-03-01 14:32:39 by Eclipse SUMO sumo Version v1_16_0+0853-bb3bf2e
This data file and the accompanying materials
are made available under the terms of the Eclipse Public License v2.0
which accompanies this distribution, and is available at
http://www.eclipse.org/legal/epl-v20.html
This file may also be made available under the following Secondary
Licenses when the conditions for such availability set forth in the Eclipse
Public License 2.0 are satisfied: GNU General Public License, version 2
or later which is available at
https://www.gnu.org/licenses/old-licenses/gpl-2.0-standalone.html
SPDX-License-Identifier: EPL-2.0 OR GPL-2.0-or-later
<configuration xmlns:xsi="http://www.w3.org/2001/XMLSchema-instance" xsi:noNamespaceSchemaLocation="http://sumo.dlr.de/xsd/sumoConfiguration.xsd">

    <input>
        <net-file value="net.net.xml"/>
        <route-files value="input_routes.rou.xml"/>
        <additional-files value="input_additional.add.xml"/>
    </input>

    <output>
        <write-license value="true"/>
    </output>

    <time>
        <begin value="0"/>
        <end value="1000"/>
    </time>

    <processing>
        <default.speeddev value="0"/>
    </processing>

    <report>
        <xml-validation value="never"/>
        <duration-log.disable value="true"/>
        <no-step-log value="true"/>
    </report>

</configuration>
-->

<meandata xmlns:xsi="http://www.w3.org/2001/XMLSchema-instance" xsi:noNamespaceSchemaLocation="http://sumo.dlr.de/xsd/meandata_file.xsd">
    <interval begin="0.00" end="60.00" id="dump_60">
        <edge id="1fi" sampledSeconds="0.00" departed="0" arrived="0" entered="0" left="0" laneChangedFrom="0" laneChangedTo="0"/>
        <edge id="1o" sampledSeconds="0.00" departed="0" arrived="0" entered="0" left="0" laneChangedFrom="0" laneChangedTo="0"/>
        <edge id="1si" sampledSeconds="0.00" departed="0" arrived="0" entered="0" left="0" laneChangedFrom="0" laneChangedTo="0"/>
        <edge id="2fi" sampledSeconds="0.00" departed="0" arrived="0" entered="0" left="0" laneChangedFrom="0" laneChangedTo="0"/>
        <edge id="2o" sampledSeconds="0.00" departed="0" arrived="0" entered="0" left="0" laneChangedFrom="0" laneChangedTo="0"/>
        <edge id="2si" sampledSeconds="0.00" departed="0" arrived="0" entered="0" left="0" laneChangedFrom="0" laneChangedTo="0"/>
        <edge id="3fi" sampledSeconds="0.00" departed="0" arrived="0" entered="0" left="0" laneChangedFrom="0" laneChangedTo="0"/>
        <edge id="3o" sampledSeconds="0.00" departed="0" arrived="0" entered="0" left="0" laneChangedFrom="0" laneChangedTo="0"/>
        <edge id="3si" sampledSeconds="0.00" departed="0" arrived="0" entered="0" left="0" laneChangedFrom="0" laneChangedTo="0"/>
        <edge id="4fi" sampledSeconds="0.00" departed="0" arrived="0" entered="0" left="0" laneChangedFrom="0" laneChangedTo="0"/>
        <edge id="4o" sampledSeconds="0.00" departed="0" arrived="0" entered="0" left="0" laneChangedFrom="0" laneChangedTo="0"/>
        <edge id="4si" sampledSeconds="0.00" departed="0" arrived="0" entered="0" left="0" laneChangedFrom="0" laneChangedTo="0"/>
    </interval>
    <interval begin="60.00" end="120.00" id="dump_60">
        <edge id="1fi" sampledSeconds="28.00" traveltime="28.65" overlapTraveltime="29.23" density="1.88" laneDensity="1.88" occupancy="0.94" waitingTime="0.00" timeLoss="6.14" speed="8.67" speedRelative="0.78" departed="2" arrived="0" entered="0" left="0" laneChangedFrom="0" laneChangedTo="0"/>
        <edge id="1o" sampledSeconds="0.00" departed="0" arrived="0" entered="0" left="0" laneChangedFrom="0" laneChangedTo="0"/>
        <edge id="1si" sampledSeconds="0.00" departed="0" arrived="0" entered="0" left="0" laneChangedFrom="0" laneChangedTo="0"/>
        <edge id="2fi" sampledSeconds="28.00" traveltime="28.45" overlapTraveltime="29.02" density="1.88" laneDensity="1.88" occupancy="0.94" waitingTime="0.00" timeLoss="5.98" speed="8.74" speedRelative="0.79" departed="2" arrived="0" entered="0" left="0" laneChangedFrom="0" laneChangedTo="0"/>
        <edge id="2o" sampledSeconds="0.00" departed="0" arrived="0" entered="0" left="0" laneChangedFrom="0" laneChangedTo="0"/>
        <edge id="2si" sampledSeconds="0.00" departed="0" arrived="0" entered="0" left="0" laneChangedFrom="0" laneChangedTo="0"/>
        <edge id="3fi" sampledSeconds="50.00" traveltime="28.72" overlapTraveltime="29.30" density="3.35" laneDensity="3.35" occupancy="1.68" waitingTime="0.00" timeLoss="11.06" speed="8.65" speedRelative="0.78" departed="4" arrived="0" entered="0" left="0" laneChangedFrom="0" laneChangedTo="0"/>
        <edge id="3o" sampledSeconds="0.00" departed="0" arrived="0" entered="0" left="0" laneChangedFrom="0" laneChangedTo="0"/>
        <edge id="3si" sampledSeconds="0.00" departed="0" arrived="0" entered="0" left="0" laneChangedFrom="0" laneChangedTo="0"/>
        <edge id="4fi" sampledSeconds="0.00" departed="0" arrived="0" entered="0" left="0" laneChangedFrom="0" laneChangedTo="0"/>
        <edge id="4o" sampledSeconds="0.00" departed="0" arrived="0" entered="0" left="0" laneChangedFrom="0" laneChangedTo="0"/>
        <edge id="4si" sampledSeconds="0.00" departed="0" arrived="0" entered="0" left="0" laneChangedFrom="0" laneChangedTo="0"/>
    </interval>
    <interval begin="120.00" end="180.00" id="dump_60">
        <edge id="1fi" sampledSeconds="157.00" traveltime="26.28" overlapTraveltime="26.73" density="10.53" laneDensity="10.53" occupancy="5.22" waitingTime="0.00" timeLoss="23.83" speed="9.48" speedRelative="0.85" departed="6" arrived="0" entered="0" left="6" laneChangedFrom="0" laneChangedTo="0"/>
        <edge id="1o" sampledSeconds="68.58" traveltime="46.65" overlapTraveltime="47.13" density="2.34" laneDensity="2.34" occupancy="1.16" waitingTime="0.00" timeLoss="3.92" speed="10.47" speedRelative="0.94" departed="0" arrived="0" entered="3" left="0" laneChangedFrom="0" laneChangedTo="0"/>
        <edge id="1si" sampledSeconds="91.57" traveltime="18.29" overlapTraveltime="19.00" density="6.44" laneDensity="2.15" occupancy="1.04" waitingTime="0.00" timeLoss="7.30" speed="12.75" speedRelative="0.92" departed="0" arrived="0" entered="6" left="4" laneChangedFrom="0" laneChangedTo="0"/>
        <edge id="2fi" sampledSeconds="156.06" traveltime="25.93" overlapTraveltime="26.39" density="10.47" laneDensity="10.47" occupancy="5.19" waitingTime="0.00" timeLoss="21.95" speed="9.61" speedRelative="0.86" departed="6" arrived="0" entered="0" left="6" laneChangedFrom="0" laneChangedTo="0"/>
        <edge id="2o" sampledSeconds="0.00" departed="0" arrived="0" entered="0" left="0" laneChangedFrom="0" laneChangedTo="0"/>
        <edge id="2si" sampledSeconds="94.82" traveltime="19.08" overlapTraveltime="19.50" density="6.66" laneDensity="2.22" occupancy="1.09" waitingTime="2.00" timeLoss="9.89" speed="12.42" speedRelative="0.89" departed="0" arrived="0" entered="6" left="3" laneChangedFrom="0" laneChangedTo="0"/>
        <edge id="3fi" sampledSeconds="311.69" traveltime="26.06" overlapTraveltime="26.53" density="20.90" laneDensity="20.90" occupancy="10.36" waitingTime="0.00" timeLoss="45.34" speed="9.55" speedRelative="0.86" departed="12" arrived="0" entered="0" left="12" laneChangedFrom="0" laneChangedTo="0"/>
        <edge id="3o" sampledSeconds="0.00" departed="0" arrived="0" entered="0" left="0" laneChangedFrom="0" laneChangedTo="0"/>
        <edge id="3si" sampledSeconds="318.42" traveltime="35.22" overlapTraveltime="35.97" density="22.38" laneDensity="7.46" occupancy="3.70" waitingTime="138.00" timeLoss="164.08" speed="6.73" speedRelative="0.48" departed="0" arrived="0" entered="12" left="0" laneChangedFrom="0" laneChangedTo="0"/>
        <edge id="4fi" sampledSeconds="0.00" departed="0" arrived="0" entered="0" left="0" laneChangedFrom="0" laneChangedTo="0"/>
        <edge id="4o" sampledSeconds="64.30" traveltime="46.51" overlapTraveltime="46.99" density="2.19" laneDensity="2.19" occupancy="1.08" waitingTime="0.00" timeLoss="3.50" speed="10.51" speedRelative="0.95" departed="0" arrived="0" entered="4" left="0" laneChangedFrom="0" laneChangedTo="0"/>
        <edge id="4si" sampledSeconds="0.00" departed="0" arrived="0" entered="0" left="0" laneChangedFrom="0" laneChangedTo="0"/>
    </interval>
    <interval begin="180.00" end="240.00" id="dump_60">
        <edge id="1fi" sampledSeconds="229.06" traveltime="25.27" overlapTraveltime="25.73" density="15.36" laneDensity="15.36" occupancy="7.59" waitingTime="0.00" timeLoss="27.33" speed="9.85" speedRelative="0.89" departed="6" arrived="0" entered="3" left="9" laneChangedFrom="0" laneChangedTo="0"/>
        <edge id="1o" sampledSeconds="105.86" traveltime="46.96" overlapTraveltime="47.50" density="3.61" laneDensity="3.61" occupancy="1.77" waitingTime="0.00" timeLoss="6.84" speed="10.39" speedRelative="0.94" departed="0" arrived="0" entered="6" left="3" laneChangedFrom="0" laneChangedTo="0"/>
        <edge id="1si" sampledSeconds="306.27" traveltime="39.36" overlapTraveltime="41.62" density="21.52" laneDensity="7.17" occupancy="3.55" waitingTime="129.00" timeLoss="177.87" speed="5.82" speedRelative="0.42" departed="0" arrived="0" entered="9" left="3" laneChangedFrom="0" laneChangedTo="0"/>
        <edge id="2fi" sampledSeconds="171.97" traveltime="25.45" overlapTraveltime="25.92" density="11.53" laneDensity="11.53" occupancy="5.68" waitingTime="0.00" timeLoss="21.46" speed="9.78" speedRelative="0.88" departed="5" arrived="0" entered="5" left="6" laneChangedFrom="0" laneChangedTo="0"/>
        <edge id="2o" sampledSeconds="317.30" traveltime="47.08" overlapTraveltime="47.57" density="10.82" laneDensity="10.82" occupancy="5.35" waitingTime="0.00" timeLoss="20.90" speed="10.38" speedRelative="0.93" departed="0" arrived="0" entered="8" left="5" laneChangedFrom="0" laneChangedTo="0"/>
        <edge id="2si" sampledSeconds="305.39" traveltime="50.03" overlapTraveltime="50.67" density="21.46" laneDensity="7.15" occupancy="3.53" waitingTime="156.00" timeLoss="199.83" speed="4.78" speedRelative="0.34" departed="0" arrived="0" entered="6" left="7" laneChangedFrom="0" laneChangedTo="0"/>
        <edge id="3fi" sampledSeconds="311.51" traveltime="26.04" overlapTraveltime="26.52" density="20.89" laneDensity="20.89" occupancy="10.36" waitingTime="0.00" timeLoss="45.06" speed="9.56" speedRelative="0.86" departed="12" arrived="0" entered="0" left="11" laneChangedFrom="0" laneChangedTo="0"/>
        <edge id="3o" sampledSeconds="0.00" departed="0" arrived="0" entered="0" left="0" laneChangedFrom="0" laneChangedTo="0"/>
        <edge id="3si" sampledSeconds="350.36" traveltime="27.98" overlapTraveltime="28.68" density="24.62" laneDensity="8.21" occupancy="4.02" waitingTime="83.00" timeLoss="136.54" speed="8.44" speedRelative="0.61" departed="0" arrived="0" entered="11" left="14" laneChangedFrom="0" laneChangedTo="0"/>
        <edge id="4fi" sampledSeconds="105.05" traveltime="23.71" overlapTraveltime="24.19" density="7.05" laneDensity="7.05" occupancy="3.44" waitingTime="0.00" timeLoss="6.17" speed="10.48" speedRelative="0.94" departed="0" arrived="0" entered="8" left="2" laneChangedFrom="0" laneChangedTo="0"/>
        <edge id="4o" sampledSeconds="433.20" traveltime="47.03" overlapTraveltime="47.51" density="14.78" laneDensity="14.78" occupancy="7.32" waitingTime="0.00" timeLoss="28.05" speed="10.39" speedRelative="0.94" departed="0" arrived="0" entered="7" left="9" laneChangedFrom="0" laneChangedTo="0"/>
        <edge id="4si" sampledSeconds="29.86" traveltime="19.03" overlapTraveltime="19.43" density="2.10" laneDensity="0.70" occupancy="0.34" waitingTime="0.00" timeLoss="3.07" speed="12.46" speedRelative="0.90" departed="0" arrived="0" entered="2" left="0" laneChangedFrom="0" laneChangedTo="0"/>
    </interval>
    <interval begin="240.00" end="300.00" id="dump_60">
        <edge id="1fi" sampledSeconds="264.53" traveltime="25.24" overlapTraveltime="25.72" density="17.74" laneDensity="17.74" occupancy="8.76" waitingTime="0.00" timeLoss="30.89" speed="9.85" speedRelative="0.89" departed="6" arrived="0" entered="8" left="6" laneChangedFrom="0" laneChangedTo="0"/>
        <edge id="1o" sampledSeconds="389.87" traveltime="46.86" overlapTraveltime="47.35" density="13.30" laneDensity="13.30" occupancy="6.60" waitingTime="0.00" timeLoss="24.04" speed="10.42" speedRelative="0.94" departed="0" arrived="0" entered="3" left="8" laneChangedFrom="0" laneChangedTo="0"/>
        <edge id="1si" sampledSeconds="369.66" traveltime="48.60" overlapTraveltime="50.92" density="25.98" laneDensity="8.66" occupancy="4.27" waitingTime="160.00" timeLoss="242.58" speed="4.76" speedRelative="0.34" departed="0" arrived="0" entered="6" left="7" laneChangedFrom="0" laneChangedTo="0"/>
        <edge id="2fi" sampledSeconds="328.56" traveltime="25.17" overlapTraveltime="25.63" density="22.04" laneDensity="22.04" occupancy="10.88" waitingTime="0.00" timeLoss="38.03" speed="9.89" speedRelative="0.89" departed="7" arrived="0" entered="4" left="13" laneChangedFrom="0" laneChangedTo="0"/>
        <edge id="2o" sampledSeconds="310.79" traveltime="47.04" overlapTraveltime="47.60" density="10.60" laneDensity="10.60" occupancy="5.23" waitingTime="0.00" timeLoss="20.67" speed="10.37" speedRelative="0.93" departed="0" arrived="0" entered="11" left="4" laneChangedFrom="0" laneChangedTo="0"/>
        <edge id="2si" sampledSeconds="426.61" traveltime="35.21" overlapTraveltime="35.90" density="29.98" laneDensity="9.99" occupancy="4.96" waitingTime="173.00" timeLoss="219.30" speed="6.74" speedRelative="0.49" departed="0" arrived="0" entered="13" left="2" laneChangedFrom="0" laneChangedTo="0"/>
        <edge id="3fi" sampledSeconds="312.28" traveltime="25.98" overlapTraveltime="26.44" density="20.94" laneDensity="20.94" occupancy="10.37" waitingTime="0.00" timeLoss="44.60" speed="9.59" speedRelative="0.86" departed="12" arrived="0" entered="0" left="13" laneChangedFrom="0" laneChangedTo="0"/>
        <edge id="3o" sampledSeconds="105.36" traveltime="46.95" overlapTraveltime="47.43" density="3.59" laneDensity="3.59" occupancy="1.77" waitingTime="0.00" timeLoss="6.66" speed="10.41" speedRelative="0.94" departed="0" arrived="0" entered="6" left="0" laneChangedFrom="0" laneChangedTo="0"/>
        <edge id="3si" sampledSeconds="592.57" traveltime="47.46" overlapTraveltime="47.93" density="41.65" laneDensity="13.88" occupancy="6.84" waitingTime="288.00" timeLoss="375.65" speed="5.05" speedRelative="0.36" departed="0" arrived="0" entered="13" left="18" laneChangedFrom="0" laneChangedTo="0"/>
        <edge id="4fi" sampledSeconds="163.47" traveltime="23.82" overlapTraveltime="24.27" density="10.96" laneDensity="10.96" occupancy="5.38" waitingTime="0.00" timeLoss="10.94" speed="10.45" speedRelative="0.94" departed="0" arrived="0" entered="4" left="9" laneChangedFrom="0" laneChangedTo="0"/>
        <edge id="4o" sampledSeconds="443.13" traveltime="47.11" overlapTraveltime="47.58" density="15.11" laneDensity="15.11" occupancy="7.47" waitingTime="0.00" timeLoss="29.35" speed="10.37" speedRelative="0.93" departed="0" arrived="0" entered="15" left="4" laneChangedFrom="0" laneChangedTo="0"/>
        <edge id="4si" sampledSeconds="331.05" traveltime="32.28" overlapTraveltime="35.55" density="23.27" laneDensity="7.76" occupancy="3.81" waitingTime="133.00" timeLoss="168.06" speed="6.81" speedRelative="0.49" departed="0" arrived="0" entered="9" left="9" laneChangedFrom="0" laneChangedTo="0"/>
    </interval>
    <interval begin="300.00" end="360.00" id="dump_60">
        <edge id="1fi" sampledSeconds="267.08" traveltime="25.03" overlapTraveltime="25.47" density="17.91" laneDensity="17.91" occupancy="8.83" waitingTime="0.00" timeLoss="29.95" speed="9.95" speedRelative="0.90" departed="6" arrived="0" entered="1" left="15" laneChangedFrom="0" laneChangedTo="0"/>
        <edge id="1o" sampledSeconds="281.50" traveltime="47.01" overlapTraveltime="47.51" density="9.60" laneDensity="9.60" occupancy="4.76" waitingTime="0.00" timeLoss="18.24" speed="10.39" speedRelative="0.94" departed="0" arrived="0" entered="9" left="1" laneChangedFrom="0" laneChangedTo="0"/>
        <edge id="1si" sampledSeconds="636.32" traveltime="40.51" overlapTraveltime="42.59" density="44.72" laneDensity="14.91" occupancy="7.34" waitingTime="217.00" timeLoss="374.64" speed="5.69" speedRelative="0.41" departed="0" arrived="0" entered="15" left="15" laneChangedFrom="0" laneChangedTo="0"/>
        <edge id="2fi" sampledSeconds="420.55" traveltime="24.49" overlapTraveltime="24.96" density="28.21" laneDensity="28.21" occupancy="13.88" waitingTime="0.00" timeLoss="37.82" speed="10.16" speedRelative="0.91" departed="6" arrived="3" entered="14" left="12" laneChangedFrom="0" laneChangedTo="0"/>
        <edge id="2o" sampledSeconds="723.71" traveltime="46.95" overlapTraveltime="47.43" density="24.68" laneDensity="24.68" occupancy="12.23" waitingTime="0.00" timeLoss="45.71" speed="10.41" speedRelative="0.94" departed="0" arrived="0" entered="13" left="14" laneChangedFrom="0" laneChangedTo="0"/>
        <edge id="2si" sampledSeconds="442.42" traveltime="46.58" overlapTraveltime="47.01" density="31.09" laneDensity="10.36" occupancy="5.10" waitingTime="214.00" timeLoss="277.40" speed="5.15" speedRelative="0.37" departed="0" arrived="0" entered="12" left="16" laneChangedFrom="0" laneChangedTo="0"/>
        <edge id="3fi" sampledSeconds="432.65" traveltime="25.65" overlapTraveltime="26.14" density="29.02" laneDensity="29.02" occupancy="14.36" waitingTime="0.00" timeLoss="56.36" speed="9.70" speedRelative="0.87" departed="12" arrived="5" entered="7" left="10" laneChangedFrom="0" laneChangedTo="0"/>
        <edge id="3o" sampledSeconds="228.86" traveltime="47.25" overlapTraveltime="47.89" density="7.81" laneDensity="7.81" occupancy="3.86" waitingTime="0.00" timeLoss="16.53" speed="10.31" speedRelative="0.93" departed="0" arrived="0" entered="1" left="7" laneChangedFrom="0" laneChangedTo="0"/>
        <edge id="3si" sampledSeconds="546.67" traveltime="53.32" overlapTraveltime="54.44" density="38.42" laneDensity="12.81" occupancy="6.38" waitingTime="332.00" timeLoss="371.61" speed="4.45" speedRelative="0.32" departed="0" arrived="0" entered="9" left="0" laneChangedFrom="0" laneChangedTo="0"/>
        <edge id="4fi" sampledSeconds="375.11" traveltime="23.90" overlapTraveltime="24.37" density="25.16" laneDensity="25.16" occupancy="12.35" waitingTime="0.00" timeLoss="26.00" speed="10.40" speedRelative="0.94" departed="0" arrived="0" entered="15" left="14" laneChangedFrom="0" laneChangedTo="0"/>
        <edge id="4o" sampledSeconds="655.31" traveltime="47.09" overlapTraveltime="47.57" density="22.35" laneDensity="22.35" occupancy="11.05" waitingTime="0.00" timeLoss="43.16" speed="10.38" speedRelative="0.93" departed="0" arrived="0" entered="14" left="14" laneChangedFrom="0" laneChangedTo="0"/>
        <edge id="4si" sampledSeconds="262.80" traveltime="28.15" overlapTraveltime="29.14" density="18.47" laneDensity="6.16" occupancy="3.02" waitingTime="65.00" timeLoss="105.40" speed="8.31" speedRelative="0.60" departed="0" arrived="0" entered="14" left="2" laneChangedFrom="0" laneChangedTo="0"/>
    </interval>
    <interval begin="360.00" end="420.00" id="dump_60">
        <edge id="1fi" sampledSeconds="374.83" traveltime="24.79" overlapTraveltime="25.24" density="25.14" laneDensity="25.14" occupancy="12.38" waitingTime="0.00" timeLoss="38.12" speed="10.04" speedRelative="0.90" departed="6" arrived="0" entered="9" left="15" laneChangedFrom="0" laneChangedTo="0"/>
        <edge id="1o" sampledSeconds="182.09" traveltime="47.07" overlapTraveltime="47.59" density="6.21" laneDensity="6.21" occupancy="3.04" waitingTime="0.00" timeLoss="12.10" speed="10.37" speedRelative="0.93" departed="0" arrived="0" entered="6" left="9" laneChangedFrom="0" laneChangedTo="0"/>
        <edge id="1si" sampledSeconds="699.01" traveltime="56.33" overlapTraveltime="57.93" density="49.13" laneDensity="16.38" occupancy="8.12" waitingTime="385.00" timeLoss="488.14" speed="4.18" speedRelative="0.30" departed="0" arrived="0" entered="15" left="8" laneChangedFrom="0" laneChangedTo="0"/>
        <edge id="2fi" sampledSeconds="498.31" traveltime="24.50" overlapTraveltime="24.98" density="33.42" laneDensity="33.42" occupancy="16.46" waitingTime="0.00" timeLoss="44.93" speed="10.15" speedRelative="0.91" departed="5" arrived="9" entered="14" left="13" laneChangedFrom="0" laneChangedTo="0"/>
        <edge id="2o" sampledSeconds="690.52" traveltime="47.00" overlapTraveltime="47.47" density="23.55" laneDensity="23.55" occupancy="11.64" waitingTime="0.00" timeLoss="44.21" speed="10.40" speedRelative="0.94" departed="0" arrived="0" entered="19" left="14" laneChangedFrom="0" laneChangedTo="0"/>
        <edge id="2si" sampledSeconds="895.45" traveltime="56.40" overlapTraveltime="57.84" density="62.93" laneDensity="20.98" occupancy="10.39" waitingTime="482.00" timeLoss="624.46" speed="4.19" speedRelative="0.30" departed="0" arrived="0" entered="13" left="15" laneChangedFrom="0" laneChangedTo="0"/>
        <edge id="3fi" sampledSeconds="367.90" traveltime="25.53" overlapTraveltime="25.99" density="24.67" laneDensity="24.67" occupancy="12.19" waitingTime="0.00" timeLoss="46.89" speed="9.75" speedRelative="0.88" departed="11" arrived="2" entered="3" left="14" laneChangedFrom="0" laneChangedTo="0"/>
        <edge id="3o" sampledSeconds="384.94" traveltime="47.13" overlapTraveltime="47.61" density="13.13" laneDensity="13.13" occupancy="6.52" waitingTime="0.00" timeLoss="25.71" speed="10.37" speedRelative="0.93" departed="0" arrived="0" entered="9" left="3" laneChangedFrom="0" laneChangedTo="0"/>
        <edge id="3si" sampledSeconds="432.29" traveltime="31.33" overlapTraveltime="31.97" density="30.38" laneDensity="10.13" occupancy="4.97" waitingTime="117.00" timeLoss="195.36" speed="7.58" speedRelative="0.55" departed="0" arrived="0" entered="15" left="17" laneChangedFrom="0" laneChangedTo="0"/>
        <edge id="4fi" sampledSeconds="327.99" traveltime="23.81" overlapTraveltime="24.28" density="22.00" laneDensity="22.00" occupancy="10.78" waitingTime="0.00" timeLoss="21.23" speed="10.44" speedRelative="0.94" departed="0" arrived="0" entered="17" left="11" laneChangedFrom="0" laneChangedTo="0"/>
        <edge id="4o" sampledSeconds="699.36" traveltime="47.04" overlapTraveltime="47.51" density="23.85" laneDensity="23.85" occupancy="11.79" waitingTime="0.00" timeLoss="45.32" speed="10.39" speedRelative="0.94" departed="0" arrived="0" entered="15" left="17" laneChangedFrom="0" laneChangedTo="0"/>
        <edge id="4si" sampledSeconds="571.01" traveltime="38.38" overlapTraveltime="40.92" density="40.13" laneDensity="13.38" occupancy="6.59" waitingTime="208.00" timeLoss="326.59" speed="5.92" speedRelative="0.43" departed="0" arrived="0" entered="11" left="14" laneChangedFrom="0" laneChangedTo="0"/>
    </interval>
    <interval begin="420.00" end="480.00" id="dump_60">
        <edge id="1fi" sampledSeconds="255.93" traveltime="25.17" overlapTraveltime="25.65" density="17.16" laneDensity="17.16" occupancy="8.48" waitingTime="0.00" timeLoss="29.12" speed="9.88" speedRelative="0.89" departed="6" arrived="0" entered="7" left="6" laneChangedFrom="0" laneChangedTo="0"/>
        <edge id="1o" sampledSeconds="531.70" traveltime="47.05" overlapTraveltime="47.53" density="18.14" laneDensity="18.14" occupancy="8.99" waitingTime="0.00" timeLoss="34.69" speed="10.39" speedRelative="0.93" departed="0" arrived="0" entered="10" left="7" laneChangedFrom="0" laneChangedTo="0"/>
        <edge id="1si" sampledSeconds="849.46" traveltime="125.70" overlapTraveltime="129.90" density="59.70" laneDensity="19.90" occupancy="9.90" waitingTime="576.00" timeLoss="735.15" speed="1.86" speedRelative="0.13" departed="0" arrived="0" entered="6" left="4" laneChangedFrom="0" laneChangedTo="0"/>
        <edge id="2fi" sampledSeconds="566.80" traveltime="24.49" overlapTraveltime="24.96" density="38.01" laneDensity="38.01" occupancy="18.72" waitingTime="0.00" timeLoss="51.36" speed="10.16" speedRelative="0.91" departed="7" arrived="0" entered="17" left="19" laneChangedFrom="0" laneChangedTo="0"/>
        <edge id="2o" sampledSeconds="665.27" traveltime="46.89" overlapTraveltime="47.38" density="22.69" laneDensity="22.69" occupancy="11.23" waitingTime="0.00" timeLoss="41.38" speed="10.42" speedRelative="0.94" departed="0" arrived="0" entered="11" left="17" laneChangedFrom="0" laneChangedTo="0"/>
        <edge id="2si" sampledSeconds="581.17" traveltime="34.00" overlapTraveltime="35.41" density="40.84" laneDensity="13.61" occupancy="6.71" waitingTime="224.00" timeLoss="294.50" speed="6.84" speedRelative="0.49" departed="0" arrived="0" entered="19" left="7" laneChangedFrom="0" laneChangedTo="0"/>
        <edge id="3fi" sampledSeconds="521.40" traveltime="25.33" overlapTraveltime="25.81" density="34.97" laneDensity="34.97" occupancy="17.31" waitingTime="0.00" timeLoss="62.12" speed="9.82" speedRelative="0.88" departed="13" arrived="9" entered="7" left="11" laneChangedFrom="0" laneChangedTo="0"/>
        <edge id="3o" sampledSeconds="337.03" traveltime="47.05" overlapTraveltime="47.61" density="11.50" laneDensity="11.50" occupancy="5.67" waitingTime="0.00" timeLoss="22.46" speed="10.37" speedRelative="0.93" departed="0" arrived="0" entered="11" left="7" laneChangedFrom="0" laneChangedTo="0"/>
        <edge id="3si" sampledSeconds="589.64" traveltime="56.88" overlapTraveltime="57.24" density="41.44" laneDensity="13.81" occupancy="6.82" waitingTime="329.00" timeLoss="408.79" speed="4.23" speedRelative="0.30" departed="0" arrived="0" entered="10" left="16" laneChangedFrom="0" laneChangedTo="0"/>
        <edge id="4fi" sampledSeconds="341.35" traveltime="23.91" overlapTraveltime="24.37" density="22.89" laneDensity="22.89" occupancy="11.24" waitingTime="0.00" timeLoss="23.70" speed="10.40" speedRelative="0.94" departed="0" arrived="0" entered="13" left="13" laneChangedFrom="0" laneChangedTo="0"/>
        <edge id="4o" sampledSeconds="693.88" traveltime="47.10" overlapTraveltime="47.59" density="23.67" laneDensity="23.67" occupancy="11.71" waitingTime="0.00" timeLoss="46.09" speed="10.37" speedRelative="0.93" departed="0" arrived="0" entered="14" left="13" laneChangedFrom="0" laneChangedTo="0"/>
        <edge id="4si" sampledSeconds="851.97" traveltime="61.14" overlapTraveltime="63.45" density="59.88" laneDensity="19.96" occupancy="9.87" waitingTime="498.00" timeLoss="616.50" speed="3.82" speedRelative="0.27" departed="0" arrived="0" entered="13" left="17" laneChangedFrom="0" laneChangedTo="0"/>
    </interval>
    <interval begin="480.00" end="540.00" id="dump_60">
        <edge id="1fi" sampledSeconds="441.56" traveltime="24.64" overlapTraveltime="25.11" density="29.62" laneDensity="29.62" occupancy="14.58" waitingTime="0.00" timeLoss="43.17" speed="10.09" speedRelative="0.91" departed="6" arrived="0" entered="9" left="20" laneChangedFrom="0" laneChangedTo="0"/>
        <edge id="1o" sampledSeconds="457.71" traveltime="47.14" overlapTraveltime="47.61" density="15.61" laneDensity="15.61" occupancy="7.73" waitingTime="0.00" timeLoss="30.58" speed="10.37" speedRelative="0.93" departed="0" arrived="0" entered="9" left="9" laneChangedFrom="0" laneChangedTo="0"/>
        <edge id="1si" sampledSeconds="1216.94" traveltime="75.98" overlapTraveltime="78.66" density="85.53" laneDensity="28.51" occupancy="14.12" waitingTime="735.00" timeLoss="946.07" speed="3.08" speedRelative="0.22" departed="0" arrived="0" entered="20" left="14" laneChangedFrom="0" laneChangedTo="0"/>
        <edge id="2fi" sampledSeconds="449.05" traveltime="24.59" overlapTraveltime="25.06" density="30.12" laneDensity="30.12" occupancy="14.82" waitingTime="0.00" timeLoss="41.77" speed="10.12" speedRelative="0.91" departed="6" arrived="8" entered="11" left="12" laneChangedFrom="0" laneChangedTo="0"/>
        <edge id="2o" sampledSeconds="659.45" traveltime="47.06" overlapTraveltime="47.54" density="22.49" laneDensity="22.49" occupancy="11.15" waitingTime="0.00" timeLoss="43.16" speed="10.38" speedRelative="0.93" departed="0" arrived="0" entered="13" left="11" laneChangedFrom="0" laneChangedTo="0"/>
        <edge id="2si" sampledSeconds="728.71" traveltime="52.67" overlapTraveltime="55.13" density="51.21" laneDensity="17.07" occupancy="8.39" waitingTime="343.00" timeLoss="496.89" speed="4.39" speedRelative="0.32" departed="0" arrived="0" entered="12" left="22" laneChangedFrom="0" laneChangedTo="0"/>
        <edge id="3fi" sampledSeconds="496.33" traveltime="25.03" overlapTraveltime="25.50" density="33.29" laneDensity="33.29" occupancy="16.42" waitingTime="0.00" timeLoss="54.14" speed="9.94" speedRelative="0.89" departed="10" arrived="6" entered="11" left="13" laneChangedFrom="0" laneChangedTo="0"/>
        <edge id="3o" sampledSeconds="319.97" traveltime="47.21" overlapTraveltime="47.79" density="10.91" laneDensity="10.91" occupancy="5.38" waitingTime="0.00" timeLoss="22.49" speed="10.33" speedRelative="0.93" departed="0" arrived="0" entered="5" left="11" laneChangedFrom="0" laneChangedTo="0"/>
        <edge id="3si" sampledSeconds="756.48" traveltime="50.22" overlapTraveltime="51.24" density="53.16" laneDensity="17.72" occupancy="8.82" waitingTime="437.00" timeLoss="498.97" speed="4.73" speedRelative="0.34" departed="0" arrived="0" entered="14" left="1" laneChangedFrom="0" laneChangedTo="0"/>
        <edge id="4fi" sampledSeconds="365.77" traveltime="23.87" overlapTraveltime="24.32" density="24.53" laneDensity="24.53" occupancy="12.02" waitingTime="0.00" timeLoss="25.31" speed="10.43" speedRelative="0.94" departed="0" arrived="0" entered="13" left="19" laneChangedFrom="0" laneChangedTo="0"/>