<?xml version="1.0" encoding="UTF-8"?>

<!-- generated on 2023-03-01 14:32:39 by Eclipse SUMO sumo Version v1_16_0+0853-bb3bf2e
This data file and the accompanying materials
are made available under the terms of the Eclipse Public License v2.0
which accompanies this distribution, and is available at
http://www.eclipse.org/legal/epl-v20.html
This file may also be made available under the following Secondary
Licenses when the conditions for such availability set forth in the Eclipse
Public License 2.0 are satisfied: GNU General Public License, version 2
or later which is available at
https://www.gnu.org/licenses/old-licenses/gpl-2.0-standalone.html
SPDX-License-Identifier: EPL-2.0 OR GPL-2.0-or-later
<configuration xmlns:xsi="http://www.w3.org/2001/XMLSchema-instance" xsi:noNamespaceSchemaLocation="http://sumo.dlr.de/xsd/sumoConfiguration.xsd">

    <input>
        <net-file value="net.net.xml"/>
        <route-files value="input_routes.rou.xml"/>
        <additional-files value="input_additional.add.xml"/>
    </input>

    <output>
        <write-license value="true"/>
    </output>

    <time>
        <begin value="0"/>
        <end value="1000"/>
    </time>

    <processing>
        <default.speeddev value="0"/>
    </processing>

    <report>
        <xml-validation value="never"/>
        <duration-log.disable value="true"/>
        <no-step-log value="true"/>
    </report>

</configuration>
-->

<meandata xmlns:xsi="http://www.w3.org/2001/XMLSchema-instance" xsi:noNamespaceSchemaLocation="http://sumo.dlr.de/xsd/meandata_file.xsd">
    <interval begin="0.00" end="900.00" id="dump_900">
        <edge id="1fi" sampledSeconds="5944.85" traveltime="30.81" overlapTraveltime="31.67" density="26.58" laneDensity="26.58" occupancy="13.09" waitingTime="572.00" timeLoss="1683.87" speed="8.01" speedRelative="0.72" departed="79" arrived="12" entered="123" left="162" laneChangedFrom="0" laneChangedTo="0"/>
        <edge id="1o" sampledSeconds="6139.83" traveltime="47.02" overlapTraveltime="47.51" density="13.96" laneDensity="13.96" occupancy="6.91" waitingTime="0.00" timeLoss="397.94" speed="10.39" speedRelative="0.94" departed="0" arrived="0" entered="133" left="123" laneChangedFrom="0" laneChangedTo="0"/>
        <edge id="1si" sampledSeconds="15876.27" traveltime="105.84" overlapTraveltime="108.09" density="74.38" laneDensity="24.79" occupancy="12.30" waitingTime="9575.00" timeLoss="13305.82" speed="2.24" speedRelative="0.16" departed="0" arrived="0" entered="162" left="134" laneChangedFrom="0" laneChangedTo="0"/>
        <edge id="2fi" sampledSeconds="5625.43" traveltime="24.64" overlapTraveltime="25.11" density="25.15" laneDensity="25.15" occupancy="12.39" waitingTime="0.00" timeLoss="537.68" speed="10.10" speedRelative="0.91" departed="80" arrived="56" entered="150" left="167" laneChangedFrom="0" laneChangedTo="0"/>
        <edge id="2o" sampledSeconds="7213.65" traveltime="47.01" overlapTraveltime="47.51" density="16.40" laneDensity="16.40" occupancy="8.11" waitingTime="0.00" timeLoss="467.31" speed="10.39" speedRelative="0.94" departed="0" arrived="0" entered="152" left="150" laneChangedFrom="0" laneChangedTo="0"/>
        <edge id="2si" sampledSeconds="7812.32" traveltime="46.07" overlapTraveltime="47.62" density="36.60" laneDensity="12.20" occupancy="6.02" waitingTime="3745.00" timeLoss="4941.17" speed="5.09" speedRelative="0.37" departed="0" arrived="0" entered="167" left="160" laneChangedFrom="0" laneChangedTo="0"/>
        <edge id="3fi" sampledSeconds="6290.56" traveltime="25.23" overlapTraveltime="25.70" density="28.13" laneDensity="28.13" occupancy="13.89" waitingTime="0.00" timeLoss="729.35" speed="9.86" speedRelative="0.89" departed="148" arrived="81" entered="105" left="163" laneChangedFrom="0" laneChangedTo="0"/>
        <edge id="3o" sampledSeconds="5358.70" traveltime="47.05" overlapTraveltime="47.57" density="12.18" laneDensity="12.18" occupancy="6.03" waitingTime="0.00" timeLoss="353.24" speed="10.38" speedRelative="0.93" departed="0" arrived="0" entered="117" left="105" laneChangedFrom="0" laneChangedTo="0"/>
        <edge id="3si" sampledSeconds="7418.27" traveltime="44.68" overlapTraveltime="45.95" density="34.76" laneDensity="11.59" occupancy="5.72" waitingTime="3581.00" timeLoss="4593.39" speed="5.27" speedRelative="0.38" departed="0" arrived="0" entered="163" left="147" laneChangedFrom="0" laneChangedTo="0"/>
        <edge id="4fi" sampledSeconds="3747.24" traveltime="23.85" overlapTraveltime="24.32" density="16.75" laneDensity="16.75" occupancy="8.22" waitingTime="0.00" timeLoss="253.08" speed="10.43" speedRelative="0.94" departed="0" arrived="0" entered="155" left="153" laneChangedFrom="0" laneChangedTo="0"/>
        <edge id="4o" sampledSeconds="7685.90" traveltime="47.08" overlapTraveltime="47.56" density="17.48" laneDensity="17.48" occupancy="8.65" waitingTime="0.00" timeLoss="505.06" speed="10.38" speedRelative="0.93" departed="0" arrived="0" entered="168" left="155" laneChangedFrom="0" laneChangedTo="0"/>
        <edge id="4si" sampledSeconds="8170.74" traveltime="53.25" overlapTraveltime="55.30" density="38.28" laneDensity="12.76" occupancy="6.31" waitingTime="4416.00" timeLoss="5585.43" speed="4.38" speedRelative="0.32" departed="0" arrived="0" entered="153" left="129" laneChangedFrom="0" laneChangedTo="0"/>
    </interval>
    <interval begin="900.00" end="1000.00" id="dump_900">
        <edge id="1fi" sampledSeconds="2428.29" traveltime="106.58" overlapTraveltime="109.04" density="97.72" laneDensity="97.72" occupancy="47.90" waitingTime="564.00" timeLoss="1922.64" speed="2.32" speedRelative="0.21" departed="2" arrived="1" entered="22" left="22" laneChangedFrom="0" laneChangedTo="0"/>
        <edge id="1o" sampledSeconds="1812.35" traveltime="69.23" overlapTraveltime="70.58" density="37.09" laneDensity="37.09" occupancy="18.32" waitingTime="108.00" timeLoss="671.34" speed="6.99" speedRelative="0.63" departed="0" arrived="0" entered="28" left="22" laneChangedFrom="0" laneChangedTo="0"/>
        <edge id="1si" sampledSeconds="3403.40" traveltime="147.70" overlapTraveltime="149.69" density="143.51" laneDensity="47.84" occupancy="23.66" waitingTime="1861.00" timeLoss="3005.99" speed="1.62" speedRelative="0.12" departed="0" arrived="0" entered="21" left="20" laneChangedFrom="0" laneChangedTo="0"/>
        <edge id="2fi" sampledSeconds="608.23" traveltime="24.66" overlapTraveltime="25.13" density="24.48" laneDensity="24.48" occupancy="12.05" waitingTime="0.00" timeLoss="59.20" speed="10.09" speedRelative="0.91" departed="10" arrived="1" entered="15" left="23" laneChangedFrom="0" laneChangedTo="0"/>
        <edge id="2o" sampledSeconds="937.99" traveltime="47.25" overlapTraveltime="47.75" density="19.20" laneDensity="19.20" occupancy="9.49" waitingTime="0.00" timeLoss="65.20" speed="10.34" speedRelative="0.93" departed="0" arrived="0" entered="24" left="16" laneChangedFrom="0" laneChangedTo="0"/>
        <edge id="2si" sampledSeconds="1014.22" traveltime="42.80" overlapTraveltime="44.82" density="42.77" laneDensity="14.26" occupancy="7.03" waitingTime="467.00" timeLoss="618.35" speed="5.40" speedRelative="0.39" departed="0" arrived="0" entered="23" left="19" laneChangedFrom="0" laneChangedTo="0"/>
        <edge id="3fi" sampledSeconds="949.24" traveltime="24.95" overlapTraveltime="25.44" density="38.20" laneDensity="38.20" occupancy="18.85" waitingTime="0.00" timeLoss="100.67" speed="9.97" speedRelative="0.90" departed="20" arrived="16" entered="18" left="22" laneChangedFrom="0" laneChangedTo="0"/>
        <edge id="3o" sampledSeconds="734.24" traveltime="46.86" overlapTraveltime="47.35" density="15.03" laneDensity="15.03" occupancy="7.42" waitingTime="0.00" timeLoss="45.24" speed="10.43" speedRelative="0.94" departed="0" arrived="0" entered="19" left="18" laneChangedFrom="0" laneChangedTo="0"/>
        <edge id="3si" sampledSeconds="1082.15" traveltime="48.30" overlapTraveltime="50.36" density="45.63" laneDensity="15.21" occupancy="7.48" waitingTime="511.00" timeLoss="705.48" speed="4.81" speedRelative="0.35" departed="0" arrived="0" entered="22" left="30" laneChangedFrom="0" laneChangedTo="0"/>
        <edge id="4fi" sampledSeconds="511.64" traveltime="23.81" overlapTraveltime="24.29" density="20.59" laneDensity="20.59" occupancy="10.09" waitingTime="0.00" timeLoss="34.07" speed="10.44" speedRelative="0.94" departed="0" arrived="0" entered="22" left="21" laneChangedFrom="0" laneChangedTo="0"/>
        <edge id="4o" sampledSeconds="1043.70" traveltime="47.20" overlapTraveltime="47.68" density="21.36" laneDensity="21.36" occupancy="10.57" waitingTime="0.00" timeLoss="71.01" speed="10.35" speedRelative="0.93" departed="0" arrived="0" entered="22" left="22" laneChangedFrom="0" laneChangedTo="0"/>
        <edge id="4si" sampledSeconds="1556.64" traveltime="63.91" overlapTraveltime="65.79" density="65.64" laneDensity="21.88" occupancy="10.82" waitingTime="867.00" timeLoss="1142.04" speed="3.68" speedRelative="0.26" departed="0" arrived="0" entered="21" left="31" laneChangedFrom="0" laneChangedTo="0"/>
    </interval>
</meandata>
