<?xml version="1.0" encoding="UTF-8"?>

<!-- generated on 2022-02-09 17:48:56 by Eclipse SUMO sumo Version v1_12_0+0407-89d3a2c
This data file and the accompanying materials
are made available under the terms of the Eclipse Public License v2.0
which accompanies this distribution, and is available at
http://www.eclipse.org/legal/epl-v20.html
This file may also be made available under the following Secondary
Licenses when the conditions for such availability set forth in the Eclipse
Public License 2.0 are satisfied: GNU General Public License, version 2
or later which is available at
https://www.gnu.org/licenses/old-licenses/gpl-2.0-standalone.html
SPDX-License-Identifier: EPL-2.0 OR GPL-2.0-or-later
<configuration xmlns:xsi="http://www.w3.org/2001/XMLSchema-instance" xsi:noNamespaceSchemaLocation="http://sumo.dlr.de/xsd/sumoConfiguration.xsd">

    <input>
        <net-file value="net.net.xml"/>
        <route-files value="input_routes.rou.xml"/>
        <additional-files value="input_additional.add.xml"/>
    </input>

    <output>
        <write-license value="true"/>
    </output>

    <time>
        <begin value="0"/>
        <end value="1000"/>
    </time>

    <processing>
        <default.speeddev value="0"/>
    </processing>

    <report>
        <xml-validation value="never"/>
        <xml-validation.routes value="never"/>
        <duration-log.disable value="true"/>
        <no-step-log value="true"/>
    </report>

</configuration>
-->

<meandata xmlns:xsi="http://www.w3.org/2001/XMLSchema-instance" xsi:noNamespaceSchemaLocation="http://sumo.dlr.de/xsd/meandata_file.xsd">
    <interval begin="0.00" end="300.00" id="dump_300">
        <edge id="1fi" sampledSeconds="678.59" traveltime="25.61" overlapTraveltime="26.08" density="9.10" laneDensity="9.10" occupancy="4.50" waitingTime="0.00" timeLoss="88.19" speed="9.72" speedRelative="0.87" departed="20" arrived="0" entered="11" left="21" laneChangedFrom="0" laneChangedTo="0"/>
        <edge id="1o" sampledSeconds="564.31" traveltime="46.85" overlapTraveltime="47.35" density="3.85" laneDensity="3.85" occupancy="1.91" waitingTime="0.00" timeLoss="34.81" speed="10.42" speedRelative="0.94" departed="0" arrived="0" entered="12" left="11" laneChangedFrom="0" laneChangedTo="0"/>
        <edge id="1si" sampledSeconds="767.88" traveltime="37.55" overlapTraveltime="39.50" density="10.79" laneDensity="3.60" occupancy="1.77" waitingTime="289.00" timeLoss="428.12" speed="6.13" speedRelative="0.44" departed="0" arrived="0" entered="21" left="14" laneChangedFrom="0" laneChangedTo="0"/>
        <edge id="2fi" sampledSeconds="684.61" traveltime="25.54" overlapTraveltime="26.00" density="9.18" laneDensity="9.18" occupancy="4.54" waitingTime="0.00" timeLoss="87.45" speed="9.75" speedRelative="0.88" departed="20" arrived="0" entered="9" left="25" laneChangedFrom="0" laneChangedTo="0"/>
        <edge id="2o" sampledSeconds="628.09" traveltime="47.06" overlapTraveltime="47.58" density="4.28" laneDensity="4.28" occupancy="2.12" waitingTime="0.00" timeLoss="41.57" speed="10.37" speedRelative="0.93" departed="0" arrived="0" entered="19" left="9" laneChangedFrom="0" laneChangedTo="0"/>
        <edge id="2si" sampledSeconds="826.80" traveltime="35.64" overlapTraveltime="36.31" density="11.62" laneDensity="3.87" occupancy="1.92" waitingTime="331.00" timeLoss="428.99" speed="6.67" speedRelative="0.48" departed="0" arrived="0" entered="25" left="12" laneChangedFrom="0" laneChangedTo="0"/>
        <edge id="3fi" sampledSeconds="985.48" traveltime="26.15" overlapTraveltime="26.63" density="13.22" laneDensity="13.22" occupancy="6.55" waitingTime="0.00" timeLoss="146.06" speed="9.52" speedRelative="0.86" departed="40" arrived="0" entered="0" left="36" laneChangedFrom="0" laneChangedTo="0"/>
        <edge id="3o" sampledSeconds="107.07" traveltime="46.97" overlapTraveltime="47.45" density="0.73" laneDensity="0.73" occupancy="0.36" waitingTime="0.00" timeLoss="6.81" speed="10.40" speedRelative="0.94" departed="0" arrived="0" entered="6" left="0" laneChangedFrom="0" laneChangedTo="0"/>
        <edge id="3si" sampledSeconds="1261.38" traveltime="37.06" overlapTraveltime="37.73" density="17.73" laneDensity="5.91" occupancy="2.91" waitingTime="509.00" timeLoss="676.30" speed="6.42" speedRelative="0.46" departed="0" arrived="0" entered="36" left="32" laneChangedFrom="0" laneChangedTo="0"/>
        <edge id="4fi" sampledSeconds="268.53" traveltime="23.75" overlapTraveltime="24.20" density="3.60" laneDensity="3.60" occupancy="1.77" waitingTime="0.00" timeLoss="17.03" speed="10.48" speedRelative="0.94" departed="0" arrived="0" entered="12" left="11" laneChangedFrom="0" laneChangedTo="0"/>
        <edge id="4o" sampledSeconds="938.66" traveltime="46.96" overlapTraveltime="47.45" density="6.40" laneDensity="6.40" occupancy="3.17" waitingTime="0.00" timeLoss="59.68" speed="10.40" speedRelative="0.94" departed="0" arrived="0" entered="26" left="13" laneChangedFrom="0" laneChangedTo="0"/>
        <edge id="4si" sampledSeconds="362.13" traveltime="30.49" overlapTraveltime="33.38" density="5.09" laneDensity="1.70" occupancy="0.83" waitingTime="136.00" timeLoss="172.50" speed="7.25" speedRelative="0.52" departed="0" arrived="0" entered="11" left="9" laneChangedFrom="0" laneChangedTo="0"/>
    </interval>
    <interval begin="300.00" end="600.00" id="dump_300">
        <edge id="1fi" sampledSeconds="1736.13" traveltime="24.78" overlapTraveltime="25.24" density="23.29" laneDensity="23.29" occupancy="11.46" waitingTime="0.00" timeLoss="177.30" speed="10.04" speedRelative="0.90" departed="29" arrived="0" entered="40" left="73" laneChangedFrom="0" laneChangedTo="0"/>
        <edge id="1o" sampledSeconds="2169.10" traveltime="47.02" overlapTraveltime="47.51" density="14.80" laneDensity="14.80" occupancy="7.32" waitingTime="0.00" timeLoss="140.67" speed="10.39" speedRelative="0.94" departed="0" arrived="0" entered="53" left="40" laneChangedFrom="0" laneChangedTo="0"/>
        <edge id="1si" sampledSeconds="5001.96" traveltime="75.83" overlapTraveltime="77.96" density="70.31" laneDensity="23.44" occupancy="11.63" waitingTime="2953.00" timeLoss="3879.31" speed="3.11" speedRelative="0.22" departed="0" arrived="0" entered="73" left="56" laneChangedFrom="0" laneChangedTo="0"/>
        <edge id="2fi" sampledSeconds="2454.63" traveltime="24.52" overlapTraveltime="24.99" density="32.93" laneDensity="32.93" occupancy="16.20" waitingTime="0.00" timeLoss="223.55" speed="10.14" speedRelative="0.91" departed="29" arrived="29" entered="72" left="69" laneChangedFrom="0" laneChangedTo="0"/>
        <edge id="2o" sampledSeconds="3529.10" traveltime="47.06" overlapTraveltime="47.56" density="24.07" laneDensity="24.07" occupancy="11.91" waitingTime="0.00" timeLoss="232.23" speed="10.38" speedRelative="0.93" departed="0" arrived="0" entered="76" left="72" laneChangedFrom="0" laneChangedTo="0"/>
        <edge id="2si" sampledSeconds="3553.78" traveltime="49.99" overlapTraveltime="51.60" density="49.95" laneDensity="16.65" occupancy="8.22" waitingTime="1779.00" timeLoss="2348.32" speed="4.69" speedRelative="0.34" departed="0" arrived="0" entered="68" left="74" laneChangedFrom="0" laneChangedTo="0"/>
        <edge id="3fi" sampledSeconds="2314.09" traveltime="25.35" overlapTraveltime="25.83" density="31.04" laneDensity="31.04" occupancy="15.33" waitingTime="0.00" timeLoss="279.31" speed="9.82" speedRelative="0.88" departed="58" arrived="24" entered="36" left="65" laneChangedFrom="0" laneChangedTo="0"/>
        <edge id="3o" sampledSeconds="1812.40" traveltime="47.11" overlapTraveltime="47.67" density="12.36" laneDensity="12.36" occupancy="6.11" waitingTime="0.00" timeLoss="122.95" speed="10.36" speedRelative="0.93" departed="0" arrived="0" entered="40" left="36" laneChangedFrom="0" laneChangedTo="0"/>
        <edge id="3si" sampledSeconds="2969.05" traveltime="45.37" overlapTraveltime="46.42" density="41.73" laneDensity="13.91" occupancy="6.87" waitingTime="1455.00" timeLoss="1850.15" speed="5.22" speedRelative="0.38" departed="0" arrived="0" entered="65" left="57" laneChangedFrom="0" laneChangedTo="0"/>
        <edge id="4fi" sampledSeconds="1725.32" traveltime="23.87" overlapTraveltime="24.33" density="23.14" laneDensity="23.14" occupancy="11.35" waitingTime="0.00" timeLoss="117.25" speed="10.42" speedRelative="0.94" departed="0" arrived="0" entered="74" left="67" laneChangedFrom="0" laneChangedTo="0"/>
        <edge id="4o" sampledSeconds="3391.55" traveltime="47.08" overlapTraveltime="47.56" density="23.14" laneDensity="23.14" occupancy="11.44" waitingTime="0.00" timeLoss="222.73" speed="10.38" speedRelative="0.93" departed="0" arrived="0" entered="71" left="73" laneChangedFrom="0" laneChangedTo="0"/>
        <edge id="4si" sampledSeconds="3337.90" traveltime="48.69" overlapTraveltime="50.75" density="46.92" laneDensity="15.64" occupancy="7.73" waitingTime="1644.00" timeLoss="2186.97" speed="4.77" speedRelative="0.34" departed="0" arrived="0" entered="67" left="56" laneChangedFrom="0" laneChangedTo="0"/>
    </interval>
    <interval begin="600.00" end="900.00" id="dump_300">
        <edge id="1fi" sampledSeconds="2662.14" traveltime="25.35" overlapTraveltime="25.85" density="35.71" laneDensity="35.71" occupancy="17.58" waitingTime="25.00" timeLoss="324.18" speed="9.81" speedRelative="0.88" departed="31" arrived="13" entered="75" left="83" laneChangedFrom="0" laneChangedTo="0"/>
        <edge id="1o" sampledSeconds="3505.33" traveltime="47.11" overlapTraveltime="47.61" density="23.91" laneDensity="23.91" occupancy="11.83" waitingTime="0.00" timeLoss="234.20" speed="10.37" speedRelative="0.93" departed="0" arrived="0" entered="69" left="75" laneChangedFrom="0" laneChangedTo="0"/>
        <edge id="1si" sampledSeconds="9517.61" traveltime="120.82" overlapTraveltime="122.51" density="133.78" laneDensity="44.59" occupancy="22.17" waitingTime="5605.00" timeLoss="8157.22" speed="1.98" speedRelative="0.14" departed="0" arrived="0" entered="83" left="78" laneChangedFrom="0" laneChangedTo="0"/>
        <edge id="2fi" sampledSeconds="2442.81" traveltime="24.50" overlapTraveltime="24.97" density="32.77" laneDensity="32.77" occupancy="16.13" waitingTime="0.00" timeLoss="220.71" speed="10.15" speedRelative="0.91" departed="30" arrived="27" entered="68" left="72" laneChangedFrom="0" laneChangedTo="0"/>
        <edge id="2o" sampledSeconds="3235.24" traveltime="47.02" overlapTraveltime="47.50" density="22.07" laneDensity="22.07" occupancy="10.92" waitingTime="0.00" timeLoss="208.68" speed="10.39" speedRelative="0.94" departed="0" arrived="0" entered="64" left="69" laneChangedFrom="0" laneChangedTo="0"/>
        <edge id="2si" sampledSeconds="3439.02" traveltime="46.96" overlapTraveltime="48.89" density="48.34" laneDensity="16.11" occupancy="7.94" waitingTime="1680.00" timeLoss="2207.38" speed="4.95" speedRelative="0.36" departed="0" arrived="0" entered="73" left="71" laneChangedFrom="0" laneChangedTo="0"/>
        <edge id="3fi" sampledSeconds="2975.37" traveltime="24.89" overlapTraveltime="25.36" density="39.91" laneDensity="39.91" occupancy="19.67" waitingTime="0.00" timeLoss="307.46" speed="10.00" speedRelative="0.90" departed="52" arrived="57" entered="66" left="61" laneChangedFrom="0" laneChangedTo="0"/>
        <edge id="3o" sampledSeconds="3284.64" traveltime="47.07" overlapTraveltime="47.58" density="22.41" laneDensity="22.41" occupancy="11.09" waitingTime="0.00" timeLoss="217.21" speed="10.38" speedRelative="0.93" departed="0" arrived="0" entered="69" left="66" laneChangedFrom="0" laneChangedTo="0"/>
        <edge id="3si" sampledSeconds="3119.75" traveltime="47.54" overlapTraveltime="49.36" density="43.85" laneDensity="14.62" occupancy="7.21" waitingTime="1568.00" timeLoss="2013.97" speed="4.91" speedRelative="0.35" departed="0" arrived="0" entered="61" left="58" laneChangedFrom="0" laneChangedTo="0"/>
        <edge id="4fi" sampledSeconds="1877.03" traveltime="23.80" overlapTraveltime="24.26" density="25.18" laneDensity="25.18" occupancy="12.35" waitingTime="0.00" timeLoss="123.35" speed="10.45" speedRelative="0.94" departed="0" arrived="0" entered="74" left="80" laneChangedFrom="0" laneChangedTo="0"/>
        <edge id="4o" sampledSeconds="3596.92" traveltime="47.00" overlapTraveltime="47.48" density="24.54" laneDensity="24.54" occupancy="12.14" waitingTime="0.00" timeLoss="231.04" speed="10.40" speedRelative="0.94" departed="0" arrived="0" entered="77" left="74" laneChangedFrom="0" laneChangedTo="0"/>
        <edge id="4si" sampledSeconds="5587.21" traveltime="73.05" overlapTraveltime="74.99" density="78.53" laneDensity="26.18" occupancy="12.99" waitingTime="3477.00" timeLoss="4283.85" speed="3.23" speedRelative="0.23" departed="0" arrived="0" entered="80" left="65" laneChangedFrom="0" laneChangedTo="0"/>
    </interval>
    <interval begin="900.00" end="1000.00" id="dump_300">
        <edge id="1fi" sampledSeconds="1406.66" traveltime="46.30" overlapTraveltime="48.24" density="56.61" laneDensity="56.61" occupancy="27.88" waitingTime="283.00" timeLoss="744.00" speed="5.26" speedRelative="0.47" departed="10" arrived="4" entered="21" left="22" laneChangedFrom="0" laneChangedTo="0"/>
        <edge id="1o" sampledSeconds="1035.87" traveltime="47.10" overlapTraveltime="47.59" density="21.20" laneDensity="21.20" occupancy="10.48" waitingTime="0.00" timeLoss="68.78" speed="10.37" speedRelative="0.93" departed="0" arrived="0" entered="24" left="21" laneChangedFrom="0" laneChangedTo="0"/>
        <edge id="1si" sampledSeconds="3532.60" traveltime="152.86" overlapTraveltime="154.73" density="148.96" laneDensity="49.65" occupancy="24.63" waitingTime="1860.00" timeLoss="3132.96" speed="1.56" speedRelative="0.11" departed="0" arrived="0" entered="21" left="22" laneChangedFrom="0" laneChangedTo="0"/>
        <edge id="2fi" sampledSeconds="846.48" traveltime="24.49" overlapTraveltime="24.96" density="34.06" laneDensity="34.06" occupancy="16.77" waitingTime="0.00" timeLoss="76.37" speed="10.15" speedRelative="0.91" departed="11" arrived="9" entered="24" left="24" laneChangedFrom="0" laneChangedTo="0"/>
        <edge id="2o" sampledSeconds="1050.02" traveltime="47.01" overlapTraveltime="47.50" density="21.49" laneDensity="21.49" occupancy="10.62" waitingTime="0.00" timeLoss="67.76" speed="10.39" speedRelative="0.94" departed="0" arrived="0" entered="24" left="23" laneChangedFrom="0" laneChangedTo="0"/>
        <edge id="2si" sampledSeconds="1131.94" traveltime="45.93" overlapTraveltime="47.67" density="47.73" laneDensity="15.91" occupancy="7.85" waitingTime="537.00" timeLoss="716.68" speed="5.08" speedRelative="0.37" departed="0" arrived="0" entered="24" left="20" laneChangedFrom="0" laneChangedTo="0"/>
        <edge id="3fi" sampledSeconds="969.16" traveltime="24.95" overlapTraveltime="25.42" density="39.00" laneDensity="39.00" occupancy="19.20" waitingTime="0.00" timeLoss="102.75" speed="9.97" speedRelative="0.90" departed="16" arrived="16" entered="23" left="23" laneChangedFrom="0" laneChangedTo="0"/>
        <edge id="3o" sampledSeconds="1135.36" traveltime="47.03" overlapTraveltime="47.56" density="23.23" laneDensity="23.23" occupancy="11.49" waitingTime="0.00" timeLoss="74.66" speed="10.38" speedRelative="0.93" departed="0" arrived="0" entered="24" left="23" laneChangedFrom="0" laneChangedTo="0"/>
        <edge id="3si" sampledSeconds="986.40" traveltime="43.98" overlapTraveltime="46.10" density="41.59" laneDensity="13.86" occupancy="6.81" waitingTime="442.00" timeLoss="611.55" speed="5.25" speedRelative="0.38" departed="0" arrived="0" entered="22" left="29" laneChangedFrom="0" laneChangedTo="0"/>
        <edge id="4fi" sampledSeconds="554.28" traveltime="23.79" overlapTraveltime="24.26" density="22.31" laneDensity="22.31" occupancy="10.93" waitingTime="0.00" timeLoss="35.99" speed="10.45" speedRelative="0.94" departed="0" arrived="0" entered="24" left="23" laneChangedFrom="0" laneChangedTo="0"/>
        <edge id="4o" sampledSeconds="1106.41" traveltime="47.10" overlapTraveltime="47.58" density="22.64" laneDensity="22.64" occupancy="11.20" waitingTime="0.00" timeLoss="73.19" speed="10.38" speedRelative="0.93" departed="0" arrived="0" entered="22" left="25" laneChangedFrom="0" laneChangedTo="0"/>
        <edge id="4si" sampledSeconds="2100.45" traveltime="85.18" overlapTraveltime="87.01" density="88.57" laneDensity="29.52" occupancy="14.65" waitingTime="1313.00" timeLoss="1677.37" speed="2.78" speedRelative="0.20" departed="0" arrived="0" entered="23" left="29" laneChangedFrom="0" laneChangedTo="0"/>
    </interval>
</meandata>
