<?xml version="1.0" encoding="UTF-8"?>

<!-- generated on Sat Jun 30 00:10:48 2018 by Eclipse SUMO Version 4bc4520
This data file and the accompanying materials
are made available under the terms of the Eclipse Public License v2.0
which accompanies this distribution, and is available at
http://www.eclipse.org/legal/epl-v20.html
SPDX-License-Identifier: EPL-2.0
<configuration xmlns:xsi="http://www.w3.org/2001/XMLSchema-instance" xsi:noNamespaceSchemaLocation="http://sumo.dlr.de/xsd/sumoConfiguration.xsd">

    <input>
        <net-file value="net.net.xml"/>
        <route-files value="input_routes.rou.xml"/>
        <additional-files value="input_additional.add.xml"/>
    </input>

    <output>
        <write-license value="true"/>
    </output>

    <time>
        <begin value="0"/>
        <end value="1000"/>
    </time>

    <report>
        <xml-validation value="never"/>
        <duration-log.disable value="true"/>
        <no-step-log value="true"/>
    </report>

</configuration>
-->

<meandata xmlns:xsi="http://www.w3.org/2001/XMLSchema-instance" xsi:noNamespaceSchemaLocation="http://sumo.dlr.de/xsd/meandata_file.xsd">
    <interval begin="0.00" end="900.00" id="dump_900">
        <edge id="1fi" sampledSeconds="5029.38" traveltime="24.75" overlapTraveltime="25.22" density="22.49" occupancy="11.07" waitingTime="0.00" speed="10.05" departed="80" arrived="14" entered="126" left="183" laneChangedFrom="0" laneChangedTo="0"/>
        <edge id="1o" sampledSeconds="6291.50" traveltime="47.11" overlapTraveltime="47.63" density="14.31" occupancy="7.08" waitingTime="0.00" speed="10.36" departed="0" arrived="0" entered="135" left="126" laneChangedFrom="0" laneChangedTo="0"/>
        <edge id="1si" sampledSeconds="14624.57" traveltime="86.01" overlapTraveltime="87.88" density="68.52" occupancy="11.34" waitingTime="7945.00" speed="2.76" departed="0" arrived="0" entered="183" left="151" laneChangedFrom="0" laneChangedTo="0"/>
        <edge id="2fi" sampledSeconds="5853.76" traveltime="24.66" overlapTraveltime="25.13" density="26.17" occupancy="12.89" waitingTime="0.00" speed="10.09" departed="79" arrived="57" entered="161" left="173" laneChangedFrom="0" laneChangedTo="0"/>
        <edge id="2o" sampledSeconds="7902.73" traveltime="47.01" overlapTraveltime="47.53" density="17.97" occupancy="8.89" waitingTime="0.00" speed="10.39" departed="0" arrived="0" entered="170" left="161" laneChangedFrom="0" laneChangedTo="0"/>
        <edge id="2si" sampledSeconds="8759.19" traveltime="50.27" overlapTraveltime="51.85" density="41.04" occupancy="6.76" waitingTime="4317.00" speed="4.67" departed="0" arrived="0" entered="173" left="162" laneChangedFrom="0" laneChangedTo="0"/>
        <edge id="3fi" sampledSeconds="6333.43" traveltime="25.21" overlapTraveltime="25.68" density="28.32" occupancy="13.98" waitingTime="0.00" speed="9.87" departed="147" arrived="81" entered="108" left="165" laneChangedFrom="0" laneChangedTo="0"/>
        <edge id="3o" sampledSeconds="5471.20" traveltime="47.06" overlapTraveltime="47.59" density="12.44" occupancy="6.15" waitingTime="0.00" speed="10.37" departed="0" arrived="0" entered="121" left="108" laneChangedFrom="0" laneChangedTo="0"/>
        <edge id="3si" sampledSeconds="7790.23" traveltime="46.42" overlapTraveltime="47.70" density="36.50" occupancy="6.01" waitingTime="3845.00" speed="5.08" departed="0" arrived="0" entered="165" left="148" laneChangedFrom="0" laneChangedTo="0"/>
        <edge id="4fi" sampledSeconds="3879.62" traveltime="23.85" overlapTraveltime="24.31" density="17.35" occupancy="8.51" waitingTime="0.00" speed="10.43" departed="0" arrived="0" entered="160" left="159" laneChangedFrom="0" laneChangedTo="0"/>
        <edge id="4o" sampledSeconds="7944.29" traveltime="47.04" overlapTraveltime="47.52" density="18.06" occupancy="8.94" waitingTime="0.00" speed="10.39" departed="0" arrived="0" entered="174" left="160" laneChangedFrom="0" laneChangedTo="0"/>
        <edge id="4si" sampledSeconds="6837.18" traveltime="42.51" overlapTraveltime="44.21" density="32.03" occupancy="5.27" waitingTime="2975.00" speed="5.48" departed="0" arrived="0" entered="159" left="139" laneChangedFrom="0" laneChangedTo="0"/>
    </interval>
    <interval begin="900.00" end="1000.00" id="dump_900">
        <edge id="1fi" sampledSeconds="1082.51" traveltime="32.31" overlapTraveltime="34.05" density="43.56" occupancy="21.17" waitingTime="166.00" speed="7.45" departed="9" arrived="5" entered="26" left="19" laneChangedFrom="0" laneChangedTo="0"/>
        <edge id="1o" sampledSeconds="1256.63" traveltime="47.03" overlapTraveltime="47.51" density="25.72" occupancy="12.72" waitingTime="0.00" speed="10.39" departed="0" arrived="0" entered="29" left="26" laneChangedFrom="0" laneChangedTo="0"/>
        <edge id="1si" sampledSeconds="3473.43" traveltime="167.32" overlapTraveltime="168.93" density="146.47" occupancy="24.23" waitingTime="1968.00" speed="1.43" departed="0" arrived="0" entered="18" left="22" laneChangedFrom="0" laneChangedTo="0"/>
        <edge id="2fi" sampledSeconds="839.15" traveltime="24.56" overlapTraveltime="25.03" density="33.77" occupancy="16.63" waitingTime="0.00" speed="10.13" departed="11" arrived="9" entered="21" left="27" laneChangedFrom="0" laneChangedTo="0"/>
        <edge id="2o" sampledSeconds="1000.19" traveltime="46.96" overlapTraveltime="47.46" density="20.47" occupancy="10.12" waitingTime="0.00" speed="10.40" departed="0" arrived="0" entered="22" left="21" laneChangedFrom="0" laneChangedTo="0"/>
        <edge id="2si" sampledSeconds="1516.29" traveltime="54.85" overlapTraveltime="56.35" density="63.94" occupancy="10.54" waitingTime="765.00" speed="4.30" departed="0" arrived="0" entered="27" left="25" laneChangedFrom="0" laneChangedTo="0"/>
        <edge id="3fi" sampledSeconds="960.74" traveltime="24.92" overlapTraveltime="25.40" density="38.66" occupancy="19.09" waitingTime="0.00" speed="9.98" departed="17" arrived="15" entered="21" left="23" laneChangedFrom="0" laneChangedTo="0"/>
        <edge id="3o" sampledSeconds="1124.94" traveltime="47.16" overlapTraveltime="47.68" density="23.02" occupancy="11.39" waitingTime="0.00" speed="10.35" departed="0" arrived="0" entered="25" left="22" laneChangedFrom="0" laneChangedTo="0"/>
        <edge id="3si" sampledSeconds="1008.46" traveltime="44.93" overlapTraveltime="46.80" density="42.52" occupancy="6.96" waitingTime="415.00" speed="5.17" departed="0" arrived="0" entered="23" left="31" laneChangedFrom="0" laneChangedTo="0"/>
        <edge id="4fi" sampledSeconds="545.89" traveltime="23.82" overlapTraveltime="24.29" density="21.97" occupancy="10.77" waitingTime="0.00" speed="10.44" departed="0" arrived="0" entered="24" left="22" laneChangedFrom="0" laneChangedTo="0"/>
        <edge id="4o" sampledSeconds="1133.39" traveltime="46.98" overlapTraveltime="47.47" density="23.19" occupancy="11.48" waitingTime="0.00" speed="10.40" departed="0" arrived="0" entered="24" left="25" laneChangedFrom="0" laneChangedTo="0"/>
        <edge id="4si" sampledSeconds="1274.48" traveltime="52.02" overlapTraveltime="53.91" density="53.74" occupancy="8.84" waitingTime="626.00" speed="4.49" departed="0" arrived="0" entered="22" left="28" laneChangedFrom="0" laneChangedTo="0"/>
    </interval>
</meandata>
