<?xml version="1.0" encoding="UTF-8"?>

<!-- generated on 2023-03-01 14:32:39 by Eclipse SUMO sumo Version v1_16_0+0853-bb3bf2e
This data file and the accompanying materials
are made available under the terms of the Eclipse Public License v2.0
which accompanies this distribution, and is available at
http://www.eclipse.org/legal/epl-v20.html
This file may also be made available under the following Secondary
Licenses when the conditions for such availability set forth in the Eclipse
Public License 2.0 are satisfied: GNU General Public License, version 2
or later which is available at
https://www.gnu.org/licenses/old-licenses/gpl-2.0-standalone.html
SPDX-License-Identifier: EPL-2.0 OR GPL-2.0-or-later
<configuration xmlns:xsi="http://www.w3.org/2001/XMLSchema-instance" xsi:noNamespaceSchemaLocation="http://sumo.dlr.de/xsd/sumoConfiguration.xsd">

    <input>
        <net-file value="net.net.xml"/>
        <route-files value="input_routes.rou.xml"/>
        <additional-files value="input_additional.add.xml"/>
    </input>

    <output>
        <write-license value="true"/>
    </output>

    <time>
        <begin value="0"/>
        <end value="1000"/>
    </time>

    <processing>
        <default.speeddev value="0"/>
    </processing>

    <report>
        <xml-validation value="never"/>
        <duration-log.disable value="true"/>
        <no-step-log value="true"/>
    </report>

</configuration>
-->

<meandata xmlns:xsi="http://www.w3.org/2001/XMLSchema-instance" xsi:noNamespaceSchemaLocation="http://sumo.dlr.de/xsd/meandata_file.xsd">
    <interval begin="0.00" end="300.00" id="dump_300">
        <edge id="1fi" sampledSeconds="678.59" traveltime="25.61" overlapTraveltime="26.08" density="9.10" laneDensity="9.10" occupancy="4.50" waitingTime="0.00" timeLoss="88.19" speed="9.72" speedRelative="0.87" departed="20" arrived="0" entered="11" left="21" laneChangedFrom="0" laneChangedTo="0"/>
        <edge id="1o" sampledSeconds="564.31" traveltime="46.85" overlapTraveltime="47.35" density="3.85" laneDensity="3.85" occupancy="1.91" waitingTime="0.00" timeLoss="34.81" speed="10.42" speedRelative="0.94" departed="0" arrived="0" entered="12" left="11" laneChangedFrom="0" laneChangedTo="0"/>
        <edge id="1si" sampledSeconds="767.51" traveltime="37.57" overlapTraveltime="39.48" density="10.79" laneDensity="3.60" occupancy="1.77" waitingTime="289.00" timeLoss="427.75" speed="6.13" speedRelative="0.44" departed="0" arrived="0" entered="21" left="14" laneChangedFrom="0" laneChangedTo="0"/>
        <edge id="2fi" sampledSeconds="684.58" traveltime="25.54" overlapTraveltime="26.00" density="9.18" laneDensity="9.18" occupancy="4.54" waitingTime="0.00" timeLoss="87.42" speed="9.75" speedRelative="0.88" departed="20" arrived="0" entered="9" left="25" laneChangedFrom="0" laneChangedTo="0"/>
        <edge id="2o" sampledSeconds="628.09" traveltime="47.06" overlapTraveltime="47.58" density="4.28" laneDensity="4.28" occupancy="2.12" waitingTime="0.00" timeLoss="41.57" speed="10.37" speedRelative="0.93" departed="0" arrived="0" entered="19" left="9" laneChangedFrom="0" laneChangedTo="0"/>
        <edge id="2si" sampledSeconds="826.82" traveltime="35.64" overlapTraveltime="36.31" density="11.62" laneDensity="3.87" occupancy="1.92" waitingTime="331.00" timeLoss="429.02" speed="6.67" speedRelative="0.48" departed="0" arrived="0" entered="25" left="12" laneChangedFrom="0" laneChangedTo="0"/>
        <edge id="3fi" sampledSeconds="985.48" traveltime="26.15" overlapTraveltime="26.63" density="13.22" laneDensity="13.22" occupancy="6.55" waitingTime="0.00" timeLoss="146.06" speed="9.52" speedRelative="0.86" departed="40" arrived="0" entered="0" left="36" laneChangedFrom="0" laneChangedTo="0"/>
        <edge id="3o" sampledSeconds="105.36" traveltime="46.95" overlapTraveltime="47.43" density="0.72" laneDensity="0.72" occupancy="0.35" waitingTime="0.00" timeLoss="6.66" speed="10.41" speedRelative="0.94" departed="0" arrived="0" entered="6" left="0" laneChangedFrom="0" laneChangedTo="0"/>
        <edge id="3si" sampledSeconds="1261.35" traveltime="37.06" overlapTraveltime="37.73" density="17.73" laneDensity="5.91" occupancy="2.91" waitingTime="509.00" timeLoss="676.27" speed="6.42" speedRelative="0.46" departed="0" arrived="0" entered="36" left="32" laneChangedFrom="0" laneChangedTo="0"/>
        <edge id="4fi" sampledSeconds="268.52" traveltime="23.78" overlapTraveltime="24.24" density="3.60" laneDensity="3.60" occupancy="1.76" waitingTime="0.00" timeLoss="17.10" speed="10.46" speedRelative="0.94" departed="0" arrived="0" entered="12" left="11" laneChangedFrom="0" laneChangedTo="0"/>
        <edge id="4o" sampledSeconds="940.63" traveltime="47.03" overlapTraveltime="47.51" density="6.42" laneDensity="6.42" occupancy="3.17" waitingTime="0.00" timeLoss="60.90" speed="10.39" speedRelative="0.94" departed="0" arrived="0" entered="26" left="13" laneChangedFrom="0" laneChangedTo="0"/>
        <edge id="4si" sampledSeconds="360.91" traveltime="30.37" overlapTraveltime="33.27" density="5.07" laneDensity="1.69" occupancy="0.83" waitingTime="133.00" timeLoss="171.13" speed="7.28" speedRelative="0.52" departed="0" arrived="0" entered="11" left="9" laneChangedFrom="0" laneChangedTo="0"/>
    </interval>
    <interval begin="300.00" end="600.00" id="dump_300">
        <edge id="1fi" sampledSeconds="1733.83" traveltime="24.78" overlapTraveltime="25.24" density="23.26" laneDensity="23.26" occupancy="11.45" waitingTime="0.00" timeLoss="176.74" speed="10.04" speedRelative="0.90" departed="29" arrived="0" entered="40" left="72" laneChangedFrom="0" laneChangedTo="0"/>
        <edge id="1o" sampledSeconds="2171.76" traveltime="47.06" overlapTraveltime="47.55" density="14.81" laneDensity="14.81" occupancy="7.33" waitingTime="0.00" timeLoss="142.27" speed="10.38" speedRelative="0.93" departed="0" arrived="0" entered="53" left="40" laneChangedFrom="0" laneChangedTo="0"/>
        <edge id="1si" sampledSeconds="5061.29" traveltime="76.88" overlapTraveltime="79.09" density="71.14" laneDensity="23.71" occupancy="11.76" waitingTime="3010.00" timeLoss="3941.49" speed="3.06" speedRelative="0.22" departed="0" arrived="0" entered="72" left="55" laneChangedFrom="0" laneChangedTo="0"/>
        <edge id="2fi" sampledSeconds="2426.81" traveltime="24.48" overlapTraveltime="24.95" density="32.55" laneDensity="32.55" occupancy="16.02" waitingTime="0.00" timeLoss="217.35" speed="10.16" speedRelative="0.91" departed="29" arrived="29" entered="71" left="68" laneChangedFrom="0" laneChangedTo="0"/>
        <edge id="2o" sampledSeconds="3423.35" traveltime="46.98" overlapTraveltime="47.47" density="23.35" laneDensity="23.35" occupancy="11.55" waitingTime="0.00" timeLoss="219.18" speed="10.40" speedRelative="0.94" departed="0" arrived="0" entered="73" left="71" laneChangedFrom="0" laneChangedTo="0"/>
        <edge id="2si" sampledSeconds="3520.06" traveltime="49.95" overlapTraveltime="51.48" density="49.48" laneDensity="16.49" occupancy="8.14" waitingTime="1769.00" timeLoss="2323.34" speed="4.70" speedRelative="0.34" departed="0" arrived="0" entered="68" left="75" laneChangedFrom="0" laneChangedTo="0"/>
        <edge id="3fi" sampledSeconds="2310.58" traveltime="25.34" overlapTraveltime="25.81" density="30.99" laneDensity="30.99" occupancy="15.32" waitingTime="0.00" timeLoss="277.27" speed="9.82" speedRelative="0.88" departed="58" arrived="24" entered="36" left="65" laneChangedFrom="0" laneChangedTo="0"/>
        <edge id="3o" sampledSeconds="1808.33" traveltime="47.05" overlapTraveltime="47.58" density="12.34" laneDensity="12.34" occupancy="6.10" waitingTime="0.00" timeLoss="119.77" speed="10.37" speedRelative="0.93" departed="0" arrived="0" entered="40" left="36" laneChangedFrom="0" laneChangedTo="0"/>
        <edge id="3si" sampledSeconds="2921.77" traveltime="44.90" overlapTraveltime="46.00" density="41.07" laneDensity="13.69" occupancy="6.77" waitingTime="1419.00" timeLoss="1810.53" speed="5.26" speedRelative="0.38" departed="0" arrived="0" entered="65" left="54" laneChangedFrom="0" laneChangedTo="0"/>
        <edge id="4fi" sampledSeconds="1744.31" traveltime="23.87" overlapTraveltime="24.34" density="23.40" laneDensity="23.40" occupancy="11.47" waitingTime="0.00" timeLoss="118.77" speed="10.42" speedRelative="0.94" departed="0" arrived="0" entered="75" left="68" laneChangedFrom="0" laneChangedTo="0"/>
        <edge id="4o" sampledSeconds="3401.29" traveltime="47.09" overlapTraveltime="47.57" density="23.20" laneDensity="23.20" occupancy="11.48" waitingTime="0.00" timeLoss="224.29" speed="10.38" speedRelative="0.93" departed="0" arrived="0" entered="71" left="74" laneChangedFrom="0" laneChangedTo="0"/>
        <edge id="4si" sampledSeconds="3439.61" traveltime="49.74" overlapTraveltime="51.76" density="48.35" laneDensity="16.12" occupancy="7.97" waitingTime="1723.00" timeLoss="2276.84" speed="4.68" speedRelative="0.34" departed="0" arrived="0" entered="68" left="56" laneChangedFrom="0" laneChangedTo="0"/>
    </interval>
    <interval begin="600.00" end="900.00" id="dump_300">
        <edge id="1fi" sampledSeconds="3532.43" traveltime="36.70" overlapTraveltime="37.97" density="47.38" laneDensity="47.38" occupancy="23.33" waitingTime="572.00" timeLoss="1418.94" speed="6.68" speedRelative="0.60" departed="30" arrived="12" entered="72" left="69" laneChangedFrom="0" laneChangedTo="0"/>
        <edge id="1o" sampledSeconds="3403.76" traveltime="47.02" overlapTraveltime="47.52" density="23.22" laneDensity="23.22" occupancy="11.49" waitingTime="0.00" timeLoss="220.87" speed="10.39" speedRelative="0.94" departed="0" arrived="0" entered="68" left="72" laneChangedFrom="0" laneChangedTo="0"/>
        <edge id="1si" sampledSeconds="10047.47" traveltime="156.24" overlapTraveltime="158.34" density="141.23" laneDensity="47.08" occupancy="23.36" waitingTime="6276.00" timeLoss="8936.59" speed="1.53" speedRelative="0.11" departed="0" arrived="0" entered="69" left="65" laneChangedFrom="0" laneChangedTo="0"/>
        <edge id="2fi" sampledSeconds="2514.04" traveltime="24.56" overlapTraveltime="25.03" density="33.72" laneDensity="33.72" occupancy="16.61" waitingTime="0.00" timeLoss="232.91" speed="10.13" speedRelative="0.91" departed="31" arrived="27" entered="70" left="74" laneChangedFrom="0" laneChangedTo="0"/>
        <edge id="2o" sampledSeconds="3162.21" traveltime="47.02" overlapTraveltime="47.54" density="21.57" laneDensity="21.57" occupancy="10.67" waitingTime="0.00" timeLoss="206.56" speed="10.38" speedRelative="0.93" departed="0" arrived="0" entered="60" left="70" laneChangedFrom="0" laneChangedTo="0"/>
        <edge id="2si" sampledSeconds="3465.43" traveltime="45.74" overlapTraveltime="47.52" density="48.71" laneDensity="16.24" occupancy="8.01" waitingTime="1645.00" timeLoss="2188.81" speed="5.10" speedRelative="0.37" departed="0" arrived="0" entered="74" left="73" laneChangedFrom="0" laneChangedTo="0"/>
        <edge id="3fi" sampledSeconds="2994.50" traveltime="24.85" overlapTraveltime="25.33" density="40.17" laneDensity="40.17" occupancy="19.80" waitingTime="0.00" timeLoss="306.02" speed="10.01" speedRelative="0.90" departed="50" arrived="57" entered="69" left="62" laneChangedFrom="0" laneChangedTo="0"/>
        <edge id="3o" sampledSeconds="3445.01" traveltime="47.05" overlapTraveltime="47.56" density="23.50" laneDensity="23.50" occupancy="11.63" waitingTime="0.00" timeLoss="226.81" speed="10.38" speedRelative="0.93" departed="0" arrived="0" entered="71" left="69" laneChangedFrom="0" laneChangedTo="0"/>
        <edge id="3si" sampledSeconds="3235.15" traveltime="48.41" overlapTraveltime="50.17" density="45.47" laneDensity="15.16" occupancy="7.48" waitingTime="1653.00" timeLoss="2106.59" speed="4.83" speedRelative="0.35" departed="0" arrived="0" entered="62" left="61" laneChangedFrom="0" laneChangedTo="0"/>
        <edge id="4fi" sampledSeconds="1734.41" traveltime="23.85" overlapTraveltime="24.31" density="23.26" laneDensity="23.26" occupancy="11.41" waitingTime="0.00" timeLoss="117.21" speed="10.43" speedRelative="0.94" departed="0" arrived="0" entered="68" left="74" laneChangedFrom="0" laneChangedTo="0"/>
        <edge id="4o" sampledSeconds="3343.98" traveltime="47.08" overlapTraveltime="47.56" density="22.81" laneDensity="22.81" occupancy="11.29" waitingTime="0.00" timeLoss="219.87" speed="10.38" speedRelative="0.93" departed="0" arrived="0" entered="71" left="68" laneChangedFrom="0" laneChangedTo="0"/>
        <edge id="4si" sampledSeconds="4370.23" traveltime="60.11" overlapTraveltime="62.04" density="61.43" laneDensity="20.48" occupancy="10.14" waitingTime="2560.00" timeLoss="3137.46" speed="3.90" speedRelative="0.28" departed="0" arrived="0" entered="74" left="64" laneChangedFrom="0" laneChangedTo="0"/>
    </interval>
    <interval begin="900.00" end="1000.00" id="dump_300">
        <edge id="1fi" sampledSeconds="2428.29" traveltime="106.58" overlapTraveltime="109.04" density="97.72" laneDensity="97.72" occupancy="47.90" waitingTime="564.00" timeLoss="1922.64" speed="2.32" speedRelative="0.21" departed="2" arrived="1" entered="22" left="22" laneChangedFrom="0" laneChangedTo="0"/>
        <edge id="1o" sampledSeconds="1812.35" traveltime="69.23" overlapTraveltime="70.58" density="37.09" laneDensity="37.09" occupancy="18.32" waitingTime="108.00" timeLoss="671.34" speed="6.99" speedRelative="0.63" departed="0" arrived="0" entered="28" left="22" laneChangedFrom="0" laneChangedTo="0"/>
        <edge id="1si" sampledSeconds="3403.40" traveltime="147.70" overlapTraveltime="149.69" density="143.51" laneDensity="47.84" occupancy="23.66" waitingTime="1861.00" timeLoss="3005.99" speed="1.62" speedRelative="0.12" departed="0" arrived="0" entered="21" left="20" laneChangedFrom="0" laneChangedTo="0"/>
        <edge id="2fi" sampledSeconds="608.23" traveltime="24.66" overlapTraveltime="25.13" density="24.48" laneDensity="24.48" occupancy="12.05" waitingTime="0.00" timeLoss="59.20" speed="10.09" speedRelative="0.91" departed="10" arrived="1" entered="15" left="23" laneChangedFrom="0" laneChangedTo="0"/>
        <edge id="2o" sampledSeconds="937.99" traveltime="47.25" overlapTraveltime="47.75" density="19.20" laneDensity="19.20" occupancy="9.49" waitingTime="0.00" timeLoss="65.20" speed="10.34" speedRelative="0.93" departed="0" arrived="0" entered="24" left="16" laneChangedFrom="0" laneChangedTo="0"/>
        <edge id="2si" sampledSeconds="1014.22" traveltime="42.80" overlapTraveltime="44.82" density="42.77" laneDensity="14.26" occupancy="7.03" waitingTime="467.00" timeLoss="618.35" speed="5.40" speedRelative="0.39" departed="0" arrived="0" entered="23" left="19" laneChangedFrom="0" laneChangedTo="0"/>
        <edge id="3fi" sampledSeconds="949.24" traveltime="24.95" overlapTraveltime="25.44" density="38.20" laneDensity="38.20" occupancy="18.85" waitingTime="0.00" timeLoss="100.67" speed="9.97" speedRelative="0.90" departed="20" arrived="16" entered="18" left="22" laneChangedFrom="0" laneChangedTo="0"/>
        <edge id="3o" sampledSeconds="734.24" traveltime="46.86" overlapTraveltime="47.35" density="15.03" laneDensity="15.03" occupancy="7.42" waitingTime="0.00" timeLoss="45.24" speed="10.43" speedRelative="0.94" departed="0" arrived="0" entered="19" left="18" laneChangedFrom="0" laneChangedTo="0"/>
        <edge id="3si" sampledSeconds="1082.15" traveltime="48.30" overlapTraveltime="50.36" density="45.63" laneDensity="15.21" occupancy="7.48" waitingTime="511.00" timeLoss="705.48" speed="4.81" speedRelative="0.35" departed="0" arrived="0" entered="22" left="30" laneChangedFrom="0" laneChangedTo="0"/>
        <edge id="4fi" sampledSeconds="511.64" traveltime="23.81" overlapTraveltime="24.29" density="20.59" laneDensity="20.59" occupancy="10.09" waitingTime="0.00" timeLoss="34.07" speed="10.44" speedRelative="0.94" departed="0" arrived="0" entered="22" left="21" laneChangedFrom="0" laneChangedTo="0"/>
        <edge id="4o" sampledSeconds="1043.70" traveltime="47.20" overlapTraveltime="47.68" density="21.36" laneDensity="21.36" occupancy="10.57" waitingTime="0.00" timeLoss="71.01" speed="10.35" speedRelative="0.93" departed="0" arrived="0" entered="22" left="22" laneChangedFrom="0" laneChangedTo="0"/>
        <edge id="4si" sampledSeconds="1556.64" traveltime="63.91" overlapTraveltime="65.79" density="65.64" laneDensity="21.88" occupancy="10.82" waitingTime="867.00" timeLoss="1142.04" speed="3.68" speedRelative="0.26" departed="0" arrived="0" entered="21" left="31" laneChangedFrom="0" laneChangedTo="0"/>
    </interval>
</meandata>
