<?xml version="1.0" encoding="UTF-8"?>

<!-- generated on 2021-08-16 15:45:58 by Eclipse SUMO sumo Version v1_9_2+1069-f9b761f
This data file and the accompanying materials
are made available under the terms of the Eclipse Public License v2.0
which accompanies this distribution, and is available at
http://www.eclipse.org/legal/epl-v20.html
SPDX-License-Identifier: EPL-2.0
<configuration xmlns:xsi="http://www.w3.org/2001/XMLSchema-instance" xsi:noNamespaceSchemaLocation="http://sumo.dlr.de/xsd/sumoConfiguration.xsd">

    <input>
        <net-file value="net.net.xml"/>
        <route-files value="input_routes.rou.xml"/>
        <additional-files value="input_additional.add.xml"/>
    </input>

    <output>
        <write-license value="true"/>
    </output>

    <time>
        <begin value="0"/>
        <end value="1000"/>
    </time>

    <processing>
        <default.speeddev value="0"/>
    </processing>

    <report>
        <xml-validation value="never"/>
        <xml-validation.routes value="never"/>
        <duration-log.disable value="true"/>
        <no-step-log value="true"/>
    </report>

</configuration>
-->

<meandata xmlns:xsi="http://www.w3.org/2001/XMLSchema-instance" xsi:noNamespaceSchemaLocation="http://sumo.dlr.de/xsd/meandata_file.xsd">
    <interval begin="0.00" end="300.00" id="dump_300">
        <edge id="1fi" sampledSeconds="678.10" traveltime="25.59" overlapTraveltime="26.06" density="9.10" laneDensity="9.10" occupancy="4.50" waitingTime="0.00" timeLoss="87.63" speed="9.73" departed="20" arrived="0" entered="11" left="21" laneChangedFrom="0" laneChangedTo="0"/>
        <edge id="1o" sampledSeconds="564.02" traveltime="46.84" overlapTraveltime="47.33" density="3.85" laneDensity="3.85" occupancy="1.90" waitingTime="0.00" timeLoss="34.51" speed="10.43" departed="0" arrived="0" entered="12" left="11" laneChangedFrom="0" laneChangedTo="0"/>
        <edge id="1si" sampledSeconds="761.04" traveltime="37.22" overlapTraveltime="39.15" density="10.70" laneDensity="3.57" occupancy="1.75" waitingTime="266.00" timeLoss="421.25" speed="6.19" departed="0" arrived="0" entered="21" left="14" laneChangedFrom="0" laneChangedTo="0"/>
        <edge id="2fi" sampledSeconds="684.60" traveltime="25.54" overlapTraveltime="26.00" density="9.18" laneDensity="9.18" occupancy="4.54" waitingTime="0.00" timeLoss="87.45" speed="9.75" departed="20" arrived="0" entered="9" left="25" laneChangedFrom="0" laneChangedTo="0"/>
        <edge id="2o" sampledSeconds="635.16" traveltime="47.06" overlapTraveltime="47.59" density="4.33" laneDensity="4.33" occupancy="2.14" waitingTime="0.00" timeLoss="42.08" speed="10.37" departed="0" arrived="0" entered="20" left="9" laneChangedFrom="0" laneChangedTo="0"/>
        <edge id="2si" sampledSeconds="827.29" traveltime="35.66" overlapTraveltime="36.33" density="11.63" laneDensity="3.88" occupancy="1.92" waitingTime="331.00" timeLoss="429.47" speed="6.67" departed="0" arrived="0" entered="25" left="12" laneChangedFrom="0" laneChangedTo="0"/>
        <edge id="3fi" sampledSeconds="985.48" traveltime="26.15" overlapTraveltime="26.63" density="13.22" laneDensity="13.22" occupancy="6.55" waitingTime="0.00" timeLoss="146.06" speed="9.52" departed="40" arrived="0" entered="0" left="36" laneChangedFrom="0" laneChangedTo="0"/>
        <edge id="3o" sampledSeconds="107.07" traveltime="46.97" overlapTraveltime="47.45" density="0.73" laneDensity="0.73" occupancy="0.36" waitingTime="0.00" timeLoss="6.81" speed="10.40" departed="0" arrived="0" entered="6" left="0" laneChangedFrom="0" laneChangedTo="0"/>
        <edge id="3si" sampledSeconds="1261.36" traveltime="37.06" overlapTraveltime="37.73" density="17.73" laneDensity="5.91" occupancy="2.91" waitingTime="509.00" timeLoss="676.27" speed="6.42" departed="0" arrived="0" entered="36" left="32" laneChangedFrom="0" laneChangedTo="0"/>
        <edge id="4fi" sampledSeconds="274.88" traveltime="23.74" overlapTraveltime="24.19" density="3.69" laneDensity="3.69" occupancy="1.81" waitingTime="0.00" timeLoss="17.31" speed="10.48" departed="0" arrived="0" entered="13" left="11" laneChangedFrom="0" laneChangedTo="0"/>
        <edge id="4o" sampledSeconds="938.23" traveltime="47.04" overlapTraveltime="47.53" density="6.40" laneDensity="6.40" occupancy="3.17" waitingTime="0.00" timeLoss="61.05" speed="10.39" departed="0" arrived="0" entered="26" left="13" laneChangedFrom="0" laneChangedTo="0"/>
        <edge id="4si" sampledSeconds="354.72" traveltime="29.92" overlapTraveltime="32.45" density="4.99" laneDensity="1.66" occupancy="0.82" waitingTime="118.00" timeLoss="163.63" speed="7.46" departed="0" arrived="0" entered="11" left="10" laneChangedFrom="0" laneChangedTo="0"/>
    </interval>
    <interval begin="300.00" end="600.00" id="dump_300">
        <edge id="1fi" sampledSeconds="1732.68" traveltime="24.74" overlapTraveltime="25.20" density="23.24" laneDensity="23.24" occupancy="11.45" waitingTime="0.00" timeLoss="174.08" speed="10.06" departed="29" arrived="0" entered="40" left="72" laneChangedFrom="0" laneChangedTo="0"/>
        <edge id="1o" sampledSeconds="2166.68" traveltime="46.96" overlapTraveltime="47.44" density="14.78" laneDensity="14.78" occupancy="7.31" waitingTime="0.00" timeLoss="137.48" speed="10.41" departed="0" arrived="0" entered="53" left="40" laneChangedFrom="0" laneChangedTo="0"/>
        <edge id="1si" sampledSeconds="4394.71" traveltime="64.17" overlapTraveltime="66.06" density="61.77" laneDensity="20.59" occupancy="10.20" waitingTime="2287.00" timeLoss="3231.06" speed="3.67" departed="0" arrived="0" entered="72" left="60" laneChangedFrom="0" laneChangedTo="0"/>
        <edge id="2fi" sampledSeconds="2536.26" traveltime="24.57" overlapTraveltime="25.03" density="34.02" laneDensity="34.02" occupancy="16.74" waitingTime="0.00" timeLoss="235.39" speed="10.13" departed="29" arrived="30" entered="75" left="72" laneChangedFrom="0" laneChangedTo="0"/>
        <edge id="2o" sampledSeconds="3704.24" traveltime="47.18" overlapTraveltime="47.69" density="25.27" laneDensity="25.27" occupancy="12.50" waitingTime="0.00" timeLoss="253.29" speed="10.35" departed="0" arrived="0" entered="79" left="75" laneChangedFrom="0" laneChangedTo="0"/>
        <edge id="2si" sampledSeconds="3713.60" traveltime="50.39" overlapTraveltime="51.84" density="52.20" laneDensity="17.40" occupancy="8.59" waitingTime="1847.00" timeLoss="2459.63" speed="4.67" departed="0" arrived="0" entered="72" left="75" laneChangedFrom="0" laneChangedTo="0"/>
        <edge id="3fi" sampledSeconds="2326.04" traveltime="25.38" overlapTraveltime="25.85" density="31.20" laneDensity="31.20" occupancy="15.42" waitingTime="0.00" timeLoss="282.52" speed="9.80" departed="58" arrived="24" entered="37" left="65" laneChangedFrom="0" laneChangedTo="0"/>
        <edge id="3o" sampledSeconds="1858.94" traveltime="47.13" overlapTraveltime="47.67" density="12.68" laneDensity="12.68" occupancy="6.27" waitingTime="0.00" timeLoss="126.35" speed="10.35" departed="0" arrived="0" entered="41" left="37" laneChangedFrom="0" laneChangedTo="0"/>
        <edge id="3si" sampledSeconds="2987.21" traveltime="45.79" overlapTraveltime="46.84" density="41.99" laneDensity="14.00" occupancy="6.92" waitingTime="1481.00" timeLoss="1872.04" speed="5.17" departed="0" arrived="0" entered="65" left="56" laneChangedFrom="0" laneChangedTo="0"/>
        <edge id="4fi" sampledSeconds="1812.40" traveltime="23.86" overlapTraveltime="24.33" density="24.31" laneDensity="24.31" occupancy="11.92" waitingTime="0.00" timeLoss="122.65" speed="10.42" departed="0" arrived="0" entered="78" left="71" laneChangedFrom="0" laneChangedTo="0"/>
        <edge id="4o" sampledSeconds="3585.19" traveltime="47.05" overlapTraveltime="47.53" density="24.46" laneDensity="24.46" occupancy="12.10" waitingTime="0.00" timeLoss="233.71" speed="10.39" departed="0" arrived="0" entered="76" left="78" laneChangedFrom="0" laneChangedTo="0"/>
        <edge id="4si" sampledSeconds="3187.82" traveltime="44.53" overlapTraveltime="46.23" density="44.81" laneDensity="14.94" occupancy="7.37" waitingTime="1365.00" timeLoss="1981.16" speed="5.24" departed="0" arrived="0" entered="71" left="60" laneChangedFrom="0" laneChangedTo="0"/>
    </interval>
    <interval begin="600.00" end="900.00" id="dump_300">
        <edge id="1fi" sampledSeconds="2703.79" traveltime="25.38" overlapTraveltime="25.87" density="36.27" laneDensity="36.27" occupancy="17.85" waitingTime="30.00" timeLoss="330.91" speed="9.80" departed="30" arrived="15" entered="77" left="84" laneChangedFrom="0" laneChangedTo="0"/>
        <edge id="1o" sampledSeconds="3629.02" traveltime="47.20" overlapTraveltime="47.73" density="24.76" laneDensity="24.76" occupancy="12.24" waitingTime="0.00" timeLoss="250.46" speed="10.34" departed="0" arrived="0" entered="72" left="77" laneChangedFrom="0" laneChangedTo="0"/>
        <edge id="1si" sampledSeconds="9188.17" traveltime="119.13" overlapTraveltime="120.91" density="129.15" laneDensity="43.05" occupancy="21.39" waitingTime="5216.00" timeLoss="7858.47" speed="2.00" departed="0" arrived="0" entered="84" left="75" laneChangedFrom="0" laneChangedTo="0"/>
        <edge id="2fi" sampledSeconds="2640.16" traveltime="24.56" overlapTraveltime="25.03" density="35.41" laneDensity="35.41" occupancy="17.42" waitingTime="0.00" timeLoss="244.72" speed="10.13" departed="31" arrived="26" entered="75" left="77" laneChangedFrom="0" laneChangedTo="0"/>
        <edge id="2o" sampledSeconds="3497.61" traveltime="47.01" overlapTraveltime="47.54" density="23.86" laneDensity="23.86" occupancy="11.80" waitingTime="0.00" timeLoss="228.26" speed="10.38" departed="0" arrived="0" entered="69" left="75" laneChangedFrom="0" laneChangedTo="0"/>
        <edge id="2si" sampledSeconds="4003.48" traveltime="51.10" overlapTraveltime="52.87" density="56.27" laneDensity="18.76" occupancy="9.26" waitingTime="1942.00" timeLoss="2678.12" speed="4.58" departed="0" arrived="0" entered="77" left="78" laneChangedFrom="0" laneChangedTo="0"/>
        <edge id="3fi" sampledSeconds="2962.82" traveltime="24.80" overlapTraveltime="25.28" density="39.74" laneDensity="39.74" occupancy="19.61" waitingTime="0.00" timeLoss="298.26" speed="10.03" departed="48" arrived="55" entered="70" left="64" laneChangedFrom="0" laneChangedTo="0"/>
        <edge id="3o" sampledSeconds="3485.18" traveltime="47.14" overlapTraveltime="47.66" density="23.77" laneDensity="23.77" occupancy="11.76" waitingTime="0.00" timeLoss="236.20" speed="10.36" departed="0" arrived="0" entered="75" left="70" laneChangedFrom="0" laneChangedTo="0"/>
        <edge id="3si" sampledSeconds="3267.26" traveltime="48.49" overlapTraveltime="50.24" density="45.92" laneDensity="15.31" occupancy="7.56" waitingTime="1654.00" timeLoss="2129.69" speed="4.82" departed="0" arrived="0" entered="64" left="59" laneChangedFrom="0" laneChangedTo="0"/>
        <edge id="4fi" sampledSeconds="1744.73" traveltime="23.85" overlapTraveltime="24.31" density="23.40" laneDensity="23.40" occupancy="11.48" waitingTime="0.00" timeLoss="117.92" speed="10.43" departed="0" arrived="0" entered="67" left="75" laneChangedFrom="0" laneChangedTo="0"/>
        <edge id="4o" sampledSeconds="3283.45" traveltime="47.02" overlapTraveltime="47.50" density="22.40" laneDensity="22.40" occupancy="11.08" waitingTime="0.00" timeLoss="212.19" speed="10.39" departed="0" arrived="0" entered="69" left="67" laneChangedFrom="0" laneChangedTo="0"/>
        <edge id="4si" sampledSeconds="3653.97" traveltime="48.49" overlapTraveltime="50.05" density="51.36" laneDensity="17.12" occupancy="8.46" waitingTime="1806.00" timeLoss="2376.82" speed="4.84" departed="0" arrived="0" entered="75" left="67" laneChangedFrom="0" laneChangedTo="0"/>
    </interval>
    <interval begin="900.00" end="1000.00" id="dump_300">
        <edge id="1fi" sampledSeconds="1308.27" traveltime="38.18" overlapTraveltime="39.02" density="52.65" laneDensity="52.65" occupancy="25.97" waitingTime="177.00" timeLoss="546.33" speed="6.50" departed="10" arrived="5" entered="27" left="25" laneChangedFrom="0" laneChangedTo="0"/>
        <edge id="1o" sampledSeconds="1256.80" traveltime="47.09" overlapTraveltime="47.60" density="25.72" laneDensity="25.72" occupancy="12.72" waitingTime="0.00" timeLoss="83.64" speed="10.37" departed="0" arrived="0" entered="28" left="27" laneChangedFrom="0" laneChangedTo="0"/>
        <edge id="1si" sampledSeconds="3435.66" traveltime="128.21" overlapTraveltime="129.73" density="144.87" laneDensity="48.29" occupancy="23.95" waitingTime="1629.00" timeLoss="2972.05" speed="1.87" departed="0" arrived="0" entered="24" left="25" laneChangedFrom="0" laneChangedTo="0"/>
        <edge id="2fi" sampledSeconds="797.61" traveltime="24.54" overlapTraveltime="25.00" density="32.10" laneDensity="32.10" occupancy="15.80" waitingTime="0.00" timeLoss="73.36" speed="10.14" departed="10" arrived="9" entered="22" left="25" laneChangedFrom="0" laneChangedTo="0"/>
        <edge id="2o" sampledSeconds="1084.18" traveltime="46.96" overlapTraveltime="47.46" density="22.19" laneDensity="22.19" occupancy="10.97" waitingTime="0.00" timeLoss="69.23" speed="10.40" departed="0" arrived="0" entered="25" left="22" laneChangedFrom="0" laneChangedTo="0"/>
        <edge id="2si" sampledSeconds="1269.02" traveltime="49.90" overlapTraveltime="51.62" density="53.51" laneDensity="17.84" occupancy="8.82" waitingTime="653.00" timeLoss="839.16" speed="4.69" departed="0" arrived="0" entered="25" left="21" laneChangedFrom="0" laneChangedTo="0"/>
        <edge id="3fi" sampledSeconds="995.67" traveltime="24.94" overlapTraveltime="25.41" density="40.07" laneDensity="40.07" occupancy="19.74" waitingTime="0.00" timeLoss="105.12" speed="9.98" departed="15" arrived="16" entered="24" left="23" laneChangedFrom="0" laneChangedTo="0"/>
        <edge id="3o" sampledSeconds="1208.23" traveltime="47.34" overlapTraveltime="47.90" density="24.73" laneDensity="24.73" occupancy="12.23" waitingTime="0.00" timeLoss="87.52" speed="10.31" departed="0" arrived="0" entered="24" left="24" laneChangedFrom="0" laneChangedTo="0"/>
        <edge id="3si" sampledSeconds="1084.91" traveltime="46.28" overlapTraveltime="48.11" density="45.75" laneDensity="15.25" occupancy="7.49" waitingTime="466.00" timeLoss="689.78" speed="5.03" departed="0" arrived="0" entered="23" left="32" laneChangedFrom="0" laneChangedTo="0"/>
        <edge id="4fi" sampledSeconds="519.38" traveltime="23.79" overlapTraveltime="24.26" density="20.90" laneDensity="20.90" occupancy="10.24" waitingTime="0.00" timeLoss="33.86" speed="10.45" departed="0" arrived="0" entered="23" left="21" laneChangedFrom="0" laneChangedTo="0"/>
        <edge id="4o" sampledSeconds="1187.56" traveltime="47.12" overlapTraveltime="47.60" density="24.30" laneDensity="24.30" occupancy="12.03" waitingTime="0.00" timeLoss="78.92" speed="10.37" departed="0" arrived="0" entered="25" left="24" laneChangedFrom="0" laneChangedTo="0"/>
        <edge id="4si" sampledSeconds="1038.90" traveltime="43.73" overlapTraveltime="45.79" density="43.81" laneDensity="14.60" occupancy="7.18" waitingTime="439.00" timeLoss="641.48" speed="5.29" departed="0" arrived="0" entered="21" left="30" laneChangedFrom="0" laneChangedTo="0"/>
    </interval>
</meandata>
