<?xml version="1.0" encoding="UTF-8"?>

<!-- generated on Tue Mar 31 12:21:28 2020 by Eclipse SUMO Version v1_5_0+1025-83bc0d0af0
This data file and the accompanying materials
are made available under the terms of the Eclipse Public License v2.0
which accompanies this distribution, and is available at
http://www.eclipse.org/legal/epl-v20.html
SPDX-License-Identifier: EPL-2.0
<configuration xmlns:xsi="http://www.w3.org/2001/XMLSchema-instance" xsi:noNamespaceSchemaLocation="http://sumo.dlr.de/xsd/sumoConfiguration.xsd">

    <input>
        <net-file value="net.net.xml"/>
        <additional-files value="input_routes.rou.xml,input_additional.add.xml,input_additional2.add.xml"/>
    </input>

    <output>
        <write-license value="true"/>
    </output>

    <time>
        <begin value="0"/>
        <end value="100"/>
    </time>

    <processing>
        <default.speeddev value="0"/>
        <pedestrian.model value="nonInteracting"/>
    </processing>

    <report>
        <xml-validation value="never"/>
        <duration-log.disable value="true"/>
        <no-step-log value="true"/>
    </report>

    <mesoscopic>
        <mesosim value="true"/>
    </mesoscopic>

</configuration>
-->

<detector xmlns:xsi="http://www.w3.org/2001/XMLSchema-instance" xsi:noNamespaceSchemaLocation="http://sumo.dlr.de/xsd/det_e1meso_file.xsd">
    <interval begin="0.00" end="10.00" id="3/1to2/1" sampledSeconds="0.00" departed="0" arrived="0" entered="0" left="0"/>
    <interval begin="0.00" end="10.00" id="4/1to3/1" sampledSeconds="0.00" departed="0" arrived="0" entered="0" left="0"/>
    <interval begin="10.00" end="20.00" id="3/1to2/1" sampledSeconds="0.00" departed="0" arrived="0" entered="0" left="0"/>
    <interval begin="10.00" end="20.00" id="4/1to3/1" sampledSeconds="11.89" density="11.89" laneDensity="11.89" occupancy="3.57" waitingTime="0.00" speed="9.76" departed="0" arrived="0" entered="2" left="0"/>
    <interval begin="20.00" end="30.00" id="3/1to2/1" sampledSeconds="0.00" departed="0" arrived="0" entered="0" left="0"/>
    <interval begin="20.00" end="30.00" id="4/1to3/1" sampledSeconds="9.22" density="9.22" laneDensity="9.22" occupancy="2.77" waitingTime="0.00" speed="9.11" departed="0" arrived="0" entered="0" left="2"/>
    <interval begin="30.00" end="40.00" id="3/1to2/1" sampledSeconds="0.00" departed="0" arrived="0" entered="0" left="0"/>
    <interval begin="30.00" end="40.00" id="4/1to3/1" sampledSeconds="0.00" departed="0" arrived="0" entered="0" left="0"/>
    <interval begin="40.00" end="50.00" id="3/1to2/1" sampledSeconds="0.00" departed="0" arrived="0" entered="0" left="0"/>
    <interval begin="40.00" end="50.00" id="4/1to3/1" sampledSeconds="0.00" departed="0" arrived="0" entered="0" left="0"/>
    <interval begin="50.00" end="60.00" id="3/1to2/1" sampledSeconds="9.00" density="9.00" laneDensity="9.00" occupancy="2.70" waitingTime="0.00" speed="10.00" departed="0" arrived="0" entered="1" left="0"/>
    <interval begin="50.00" end="60.00" id="4/1to3/1" sampledSeconds="0.00" departed="0" arrived="0" entered="0" left="0"/>
    <interval begin="60.00" end="70.00" id="3/1to2/1" sampledSeconds="9.45" density="9.45" laneDensity="9.45" occupancy="2.83" waitingTime="0.00" speed="9.11" departed="0" arrived="0" entered="1" left="1"/>
    <interval begin="60.00" end="70.00" id="4/1to3/1" sampledSeconds="0.00" departed="0" arrived="0" entered="0" left="0"/>
    <interval begin="70.00" end="80.00" id="3/1to2/1" sampledSeconds="2.67" density="2.67" laneDensity="2.67" occupancy="0.80" waitingTime="0.00" speed="9.00" departed="0" arrived="0" entered="0" left="1"/>
    <interval begin="70.00" end="80.00" id="4/1to3/1" sampledSeconds="0.00" departed="0" arrived="0" entered="0" left="0"/>
    <interval begin="80.00" end="90.00" id="3/1to2/1" sampledSeconds="0.00" departed="0" arrived="0" entered="0" left="0"/>
    <interval begin="80.00" end="90.00" id="4/1to3/1" sampledSeconds="0.00" departed="0" arrived="0" entered="0" left="0"/>
    <interval begin="90.00" end="100.00" id="3/1to2/1" sampledSeconds="0.00" departed="0" arrived="0" entered="0" left="0"/>
    <interval begin="90.00" end="100.00" id="4/1to3/1" sampledSeconds="0.00" departed="0" arrived="0" entered="0" left="0"/>
</detector>
