<?xml version="1.0" encoding="UTF-8"?>

<!-- generated on Mon Sep  9 12:22:23 2013 by SUMO sumo Version dev-SVN-r14624
<?xml version="1.0" encoding="UTF-8"?>

<configuration xmlns:xsi="http://www.w3.org/2001/XMLSchema-instance" xsi:noNamespaceSchemaLocation="http://sumo-sim.org/xsd/sumoConfiguration.xsd">

    <input>
        <net-file value="net.net.xml"/>
        <route-files value="input_routes.rou.xml"/>
        <additional-files value="input_additional.add.xml"/>
    </input>

    <time>
        <begin value="0"/>
        <end value="10000"/>
    </time>

    <report>
        <no-duration-log value="true"/>
        <no-step-log value="true"/>
    </report>

</configuration>
-->

<meandata xmlns:xsi="http://www.w3.org/2001/XMLSchema-instance" xsi:noNamespaceSchemaLocation="http://sumo-sim.org/xsd/meandata_file.xsd">
    <interval begin="0.00" end="60.00" id="dump_60">
        <edge id="1/1to2/1" sampledSeconds="888.83" traveltime="55.97" density="15.12" occupancy="7.56" waitingTime="0.00" speed="17.51" departed="30" arrived="0" entered="0" left="3" laneChangedFrom="0" laneChangedTo="0"/>
        <edge id="2/1to3/1" sampledSeconds="11.47" traveltime="50.00" density="0.20" occupancy="0.10" waitingTime="0.00" speed="19.60" departed="0" arrived="0" entered="3" left="0" laneChangedFrom="0" laneChangedTo="0"/>
    </interval>
    <interval begin="60.00" end="120.00" id="dump_60">
        <edge id="1/1to2/1" sampledSeconds="1598.33" traveltime="53.28" density="27.18" occupancy="13.59" waitingTime="0.00" speed="18.39" departed="30" arrived="0" entered="0" left="30" laneChangedFrom="0" laneChangedTo="0"/>
        <edge id="2/1to3/1" sampledSeconds="1036.12" traveltime="50.00" density="17.62" occupancy="8.81" waitingTime="0.00" speed="19.60" departed="0" arrived="0" entered="30" left="8" laneChangedFrom="0" laneChangedTo="0"/>
        <edge id="3/1to4/1" sampledSeconds="69.37" traveltime="50.00" density="1.18" occupancy="0.59" waitingTime="0.00" speed="19.60" departed="0" arrived="0" entered="8" left="0" laneChangedFrom="0" laneChangedTo="0"/>
    </interval>
    <interval begin="120.00" end="180.00" id="dump_60">
        <edge id="1/1to2/1" sampledSeconds="1598.33" traveltime="53.28" density="27.18" occupancy="13.59" waitingTime="0.00" speed="18.39" departed="30" arrived="0" entered="0" left="30" laneChangedFrom="0" laneChangedTo="0"/>
        <edge id="2/1to3/1" sampledSeconds="1507.56" traveltime="50.00" density="25.64" occupancy="12.82" waitingTime="0.00" speed="19.60" departed="0" arrived="0" entered="30" left="30" laneChangedFrom="0" laneChangedTo="0"/>
        <edge id="3/1to4/1" sampledSeconds="1225.69" traveltime="50.00" density="20.85" occupancy="10.42" waitingTime="0.00" speed="19.60" departed="0" arrived="0" entered="30" left="13" laneChangedFrom="0" laneChangedTo="0"/>
        <edge id="4/1to5/1" sampledSeconds="175.76" traveltime="50.00" density="2.99" occupancy="1.49" waitingTime="0.00" speed="19.60" departed="0" arrived="0" entered="13" left="0" laneChangedFrom="0" laneChangedTo="0"/>
    </interval>
    <interval begin="180.00" end="240.00" id="dump_60">
        <edge id="1/1to2/1" sampledSeconds="1598.33" traveltime="53.28" density="27.18" occupancy="13.59" waitingTime="0.00" speed="18.39" departed="30" arrived="0" entered="0" left="30" laneChangedFrom="0" laneChangedTo="0"/>
        <edge id="2/1to3/1" sampledSeconds="1507.56" traveltime="50.00" density="25.64" occupancy="12.82" waitingTime="0.00" speed="19.60" departed="0" arrived="0" entered="30" left="30" laneChangedFrom="0" laneChangedTo="0"/>
        <edge id="3/1to4/1" sampledSeconds="1507.56" traveltime="50.00" density="25.64" occupancy="12.82" waitingTime="0.00" speed="19.60" departed="0" arrived="0" entered="30" left="30" laneChangedFrom="0" laneChangedTo="0"/>
        <edge id="4/1to5/1" sampledSeconds="1366.78" traveltime="50.00" density="23.25" occupancy="11.62" waitingTime="0.00" speed="19.60" departed="0" arrived="0" entered="30" left="18" laneChangedFrom="0" laneChangedTo="0"/>
        <edge id="5/1to6/1" sampledSeconds="330.63" traveltime="50.00" density="5.62" occupancy="2.81" waitingTime="0.00" speed="19.60" departed="0" arrived="0" entered="18" left="0" laneChangedFrom="0" laneChangedTo="0"/>
    </interval>
    <interval begin="240.00" end="300.00" id="dump_60">
        <edge id="1/1to2/1" sampledSeconds="1598.33" traveltime="53.28" density="27.18" occupancy="13.59" waitingTime="0.00" speed="18.39" departed="30" arrived="0" entered="0" left="30" laneChangedFrom="0" laneChangedTo="0"/>
        <edge id="2/1to3/1" sampledSeconds="1507.56" traveltime="50.00" density="25.64" occupancy="12.82" waitingTime="0.00" speed="19.60" departed="0" arrived="0" entered="30" left="30" laneChangedFrom="0" laneChangedTo="0"/>
        <edge id="3/1to4/1" sampledSeconds="1507.56" traveltime="50.00" density="25.64" occupancy="12.82" waitingTime="0.00" speed="19.60" departed="0" arrived="0" entered="30" left="30" laneChangedFrom="0" laneChangedTo="0"/>
        <edge id="4/1to5/1" sampledSeconds="1507.56" traveltime="50.00" density="25.64" occupancy="12.82" waitingTime="0.00" speed="19.60" departed="0" arrived="0" entered="30" left="30" laneChangedFrom="0" laneChangedTo="0"/>
        <edge id="5/1to6/1" sampledSeconds="1459.38" traveltime="50.00" density="24.82" occupancy="12.41" waitingTime="0.00" speed="19.60" departed="0" arrived="0" entered="30" left="23" laneChangedFrom="0" laneChangedTo="0"/>
        <edge id="6/1to7/1" sampledSeconds="533.99" traveltime="50.00" density="9.08" occupancy="4.54" waitingTime="0.00" speed="19.60" departed="0" arrived="0" entered="23" left="0" laneChangedFrom="0" laneChangedTo="0"/>
    </interval>
    <interval begin="300.00" end="360.00" id="dump_60">
        <edge id="1/1to2/1" sampledSeconds="1598.33" traveltime="53.28" density="27.18" occupancy="13.59" waitingTime="0.00" speed="18.39" departed="30" arrived="0" entered="0" left="30" laneChangedFrom="0" laneChangedTo="0"/>
        <edge id="2/1to3/1" sampledSeconds="1507.56" traveltime="50.00" density="25.64" occupancy="12.82" waitingTime="0.00" speed="19.60" departed="0" arrived="0" entered="30" left="30" laneChangedFrom="0" laneChangedTo="0"/>
        <edge id="3/1to4/1" sampledSeconds="1507.56" traveltime="50.00" density="25.64" occupancy="12.82" waitingTime="0.00" speed="19.60" departed="0" arrived="0" entered="30" left="30" laneChangedFrom="0" laneChangedTo="0"/>
        <edge id="4/1to5/1" sampledSeconds="1507.56" traveltime="50.00" density="25.64" occupancy="12.82" waitingTime="0.00" speed="19.60" departed="0" arrived="0" entered="30" left="30" laneChangedFrom="0" laneChangedTo="0"/>
        <edge id="5/1to6/1" sampledSeconds="1507.56" traveltime="50.00" density="25.64" occupancy="12.82" waitingTime="0.00" speed="19.60" departed="0" arrived="0" entered="30" left="30" laneChangedFrom="0" laneChangedTo="0"/>
        <edge id="6/1to7/1" sampledSeconds="1503.49" traveltime="50.00" density="25.57" occupancy="12.79" waitingTime="0.00" speed="19.60" departed="0" arrived="0" entered="30" left="28" laneChangedFrom="0" laneChangedTo="0"/>
        <edge id="7/1to8/1" sampledSeconds="777.39" traveltime="50.00" density="13.22" occupancy="6.61" waitingTime="0.00" speed="19.60" departed="0" arrived="0" entered="28" left="3" laneChangedFrom="0" laneChangedTo="0"/>
        <edge id="8/1to9/1" sampledSeconds="8.74" traveltime="50.00" density="0.15" occupancy="0.07" waitingTime="0.00" speed="19.60" departed="0" arrived="0" entered="3" left="0" laneChangedFrom="0" laneChangedTo="0"/>
    </interval>
    <interval begin="360.00" end="420.00" id="dump_60">
        <edge id="1/1to2/1" sampledSeconds="1598.33" traveltime="53.28" density="27.18" occupancy="13.59" waitingTime="0.00" speed="18.39" departed="30" arrived="0" entered="0" left="30" laneChangedFrom="0" laneChangedTo="0"/>
        <edge id="2/1to3/1" sampledSeconds="1507.56" traveltime="50.00" density="25.64" occupancy="12.82" waitingTime="0.00" speed="19.60" departed="0" arrived="0" entered="30" left="30" laneChangedFrom="0" laneChangedTo="0"/>
        <edge id="3/1to4/1" sampledSeconds="1507.56" traveltime="50.00" density="25.64" occupancy="12.82" waitingTime="0.00" speed="19.60" departed="0" arrived="0" entered="30" left="30" laneChangedFrom="0" laneChangedTo="0"/>
        <edge id="4/1to5/1" sampledSeconds="1507.56" traveltime="50.00" density="25.64" occupancy="12.82" waitingTime="0.00" speed="19.60" departed="0" arrived="0" entered="30" left="30" laneChangedFrom="0" laneChangedTo="0"/>
        <edge id="5/1to6/1" sampledSeconds="1507.56" traveltime="50.00" density="25.64" occupancy="12.82" waitingTime="0.00" speed="19.60" departed="0" arrived="0" entered="30" left="30" laneChangedFrom="0" laneChangedTo="0"/>
        <edge id="6/1to7/1" sampledSeconds="1507.56" traveltime="50.00" density="25.64" occupancy="12.82" waitingTime="0.00" speed="19.60" departed="0" arrived="0" entered="30" left="30" laneChangedFrom="0" laneChangedTo="0"/>
        <edge id="7/1to8/1" sampledSeconds="1507.56" traveltime="50.00" density="25.64" occupancy="12.82" waitingTime="0.00" speed="19.60" departed="0" arrived="0" entered="30" left="30" laneChangedFrom="0" laneChangedTo="0"/>
        <edge id="8/1to9/1" sampledSeconds="1016.12" traveltime="50.00" density="17.28" occupancy="8.64" waitingTime="0.00" speed="19.60" departed="0" arrived="0" entered="30" left="8" laneChangedFrom="0" laneChangedTo="0"/>
        <edge id="9/1to10/1" sampledSeconds="62.10" traveltime="50.00" density="1.06" occupancy="0.53" waitingTime="0.00" speed="19.60" departed="0" arrived="0" entered="8" left="0" laneChangedFrom="0" laneChangedTo="0"/>
    </interval>
    <interval begin="420.00" end="480.00" id="dump_60">
        <edge id="1/1to2/1" sampledSeconds="1598.33" traveltime="53.28" density="27.18" occupancy="13.59" waitingTime="0.00" speed="18.39" departed="30" arrived="0" entered="0" left="30" laneChangedFrom="0" laneChangedTo="0"/>
        <edge id="10/1to1/1" sampledSeconds="163.94" traveltime="51.82" density="2.79" occupancy="1.39" waitingTime="0.00" speed="18.91" departed="0" arrived="0" entered="13" left="0" laneChangedFrom="0" laneChangedTo="0"/>
        <edge id="2/1to3/1" sampledSeconds="1507.56" traveltime="50.00" density="25.64" occupancy="12.82" waitingTime="0.00" speed="19.60" departed="0" arrived="0" entered="30" left="30" laneChangedFrom="0" laneChangedTo="0"/>
        <edge id="3/1to4/1" sampledSeconds="1507.56" traveltime="50.00" density="25.64" occupancy="12.82" waitingTime="0.00" speed="19.60" departed="0" arrived="0" entered="30" left="30" laneChangedFrom="0" laneChangedTo="0"/>
        <edge id="4/1to5/1" sampledSeconds="1507.56" traveltime="50.00" density="25.64" occupancy="12.82" waitingTime="0.00" speed="19.60" departed="0" arrived="0" entered="30" left="30" laneChangedFrom="0" laneChangedTo="0"/>
        <edge id="5/1to6/1" sampledSeconds="1507.56" traveltime="50.00" density="25.64" occupancy="12.82" waitingTime="0.00" speed="19.60" departed="0" arrived="0" entered="30" left="30" laneChangedFrom="0" laneChangedTo="0"/>
        <edge id="6/1to7/1" sampledSeconds="1507.56" traveltime="50.00" density="25.64" occupancy="12.82" waitingTime="0.00" speed="19.60" departed="0" arrived="0" entered="30" left="30" laneChangedFrom="0" laneChangedTo="0"/>
        <edge id="7/1to8/1" sampledSeconds="1507.56" traveltime="50.00" density="25.64" occupancy="12.82" waitingTime="0.00" speed="19.60" departed="0" arrived="0" entered="30" left="30" laneChangedFrom="0" laneChangedTo="0"/>
        <edge id="8/1to9/1" sampledSeconds="1507.56" traveltime="50.00" density="25.64" occupancy="12.82" waitingTime="0.00" speed="19.60" departed="0" arrived="0" entered="30" left="30" laneChangedFrom="0" laneChangedTo="0"/>
        <edge id="9/1to10/1" sampledSeconds="1210.23" traveltime="50.00" density="20.58" occupancy="10.29" waitingTime="0.00" speed="19.60" departed="0" arrived="0" entered="30" left="13" laneChangedFrom="0" laneChangedTo="0"/>
    </interval>
    <interval begin="480.00" end="540.00" id="dump_60">
        <edge id="1/1to2/1" sampledSeconds="1587.19" traveltime="52.90" density="26.99" occupancy="13.50" waitingTime="0.00" speed="18.53" departed="25" arrived="0" entered="4" left="30" laneChangedFrom="0" laneChangedTo="0"/>
        <edge id="10/1to1/1" sampledSeconds="1654.97" traveltime="68.02" density="28.15" occupancy="14.07" waitingTime="0.00" speed="14.41" departed="0" arrived="0" entered="30" left="4" laneChangedFrom="0" laneChangedTo="0"/>
        <edge id="2/1to3/1" sampledSeconds="1507.56" traveltime="50.00" density="25.64" occupancy="12.82" waitingTime="0.00" speed="19.60" departed="0" arrived="0" entered="30" left="30" laneChangedFrom="0" laneChangedTo="0"/>
        <edge id="3/1to4/1" sampledSeconds="1507.56" traveltime="50.00" density="25.64" occupancy="12.82" waitingTime="0.00" speed="19.60" departed="0" arrived="0" entered="30" left="30" laneChangedFrom="0" laneChangedTo="0"/>
        <edge id="4/1to5/1" sampledSeconds="1507.56" traveltime="50.00" density="25.64" occupancy="12.82" waitingTime="0.00" speed="19.60" departed="0" arrived="0" entered="30" left="30" laneChangedFrom="0" laneChangedTo="0"/>
        <edge id="5/1to6/1" sampledSeconds="1507.56" traveltime="50.00" density="25.64" occupancy="12.82" waitingTime="0.00" speed="19.60" departed="0" arrived="0" entered="30" left="30" laneChangedFrom="0" laneChangedTo="0"/>
        <edge id="6/1to7/1" sampledSeconds="1507.56" traveltime="50.00" density="25.64" occupancy="12.82" waitingTime="0.00" speed="19.60" departed="0" arrived="0" entered="30" left="30" laneChangedFrom="0" laneChangedTo="0"/>
        <edge id="7/1to8/1" sampledSeconds="1507.56" traveltime="50.00" density="25.64" occupancy="12.82" waitingTime="0.00" speed="19.60" departed="0" arrived="0" entered="30" left="30" laneChangedFrom="0" laneChangedTo="0"/>
        <edge id="8/1to9/1" sampledSeconds="1507.56" traveltime="50.00" density="25.64" occupancy="12.82" waitingTime="0.00" speed="19.60" departed="0" arrived="0" entered="30" left="30" laneChangedFrom="0" laneChangedTo="0"/>
        <edge id="9/1to10/1" sampledSeconds="1507.56" traveltime="50.00" density="25.64" occupancy="12.82" waitingTime="0.00" speed="19.60" departed="0" arrived="0" entered="30" left="30" laneChangedFrom="0" laneChangedTo="0"/>
    </interval>
    <interval begin="540.00" end="600.00" id="dump_60">
        <edge id="1/1to2/1" sampledSeconds="1947.89" traveltime="50.00" density="33.13" occupancy="16.56" waitingTime="0.00" speed="19.60" departed="0" arrived="0" entered="43" left="34" laneChangedFrom="0" laneChangedTo="0"/>
        <edge id="10/1to1/1" sampledSeconds="1904.38" traveltime="57.81" density="32.39" occupancy="16.19" waitingTime="0.00" speed="16.95" departed="0" arrived="0" entered="30" left="43" laneChangedFrom="0" laneChangedTo="0"/>
        <edge id="2/1to3/1" sampledSeconds="1526.57" traveltime="50.00" density="25.96" occupancy="12.98" waitingTime="0.00" speed="19.60" departed="0" arrived="0" entered="33" left="30" laneChangedFrom="0" laneChangedTo="0"/>
        <edge id="3/1to4/1" sampledSeconds="1507.56" traveltime="50.00" density="25.64" occupancy="12.82" waitingTime="0.00" speed="19.60" departed="0" arrived="0" entered="30" left="30" laneChangedFrom="0" laneChangedTo="0"/>
        <edge id="4/1to5/1" sampledSeconds="1507.56" traveltime="50.00" density="25.64" occupancy="12.82" waitingTime="0.00" speed="19.60" departed="0" arrived="0" entered="30" left="30" laneChangedFrom="0" laneChangedTo="0"/>
        <edge id="5/1to6/1" sampledSeconds="1507.56" traveltime="50.00" density="25.64" occupancy="12.82" waitingTime="0.00" speed="19.60" departed="0" arrived="0" entered="30" left="30" laneChangedFrom="0" laneChangedTo="0"/>
        <edge id="6/1to7/1" sampledSeconds="1507.56" traveltime="50.00" density="25.64" occupancy="12.82" waitingTime="0.00" speed="19.60" departed="0" arrived="0" entered="30" left="30" laneChangedFrom="0" laneChangedTo="0"/>
        <edge id="7/1to8/1" sampledSeconds="1507.56" traveltime="50.00" density="25.64" occupancy="12.82" waitingTime="0.00" speed="19.60" departed="0" arrived="0" entered="30" left="30" laneChangedFrom="0" laneChangedTo="0"/>
        <edge id="8/1to9/1" sampledSeconds="1507.56" traveltime="50.00" density="25.64" occupancy="12.82" waitingTime="0.00" speed="19.60" departed="0" arrived="0" entered="30" left="30" laneChangedFrom="0" laneChangedTo="0"/>
        <edge id="9/1to10/1" sampledSeconds="1507.56" traveltime="50.00" density="25.64" occupancy="12.82" waitingTime="0.00" speed="19.60" departed="0" arrived="0" entered="30" left="30" laneChangedFrom="0" laneChangedTo="0"/>
    </interval>
    <interval begin="600.00" end="660.00" id="dump_60">
        <edge id="1/1to2/1" sampledSeconds="1780.92" traveltime="50.00" density="30.29" occupancy="15.14" waitingTime="0.00" speed="19.60" departed="0" arrived="0" entered="31" left="41" laneChangedFrom="0" laneChangedTo="0"/>
        <edge id="10/1to1/1" sampledSeconds="1513.12" traveltime="50.00" density="25.73" occupancy="12.87" waitingTime="0.00" speed="19.60" departed="0" arrived="0" entered="30" left="31" laneChangedFrom="0" laneChangedTo="0"/>
        <edge id="2/1to3/1" sampledSeconds="2024.67" traveltime="50.00" density="34.44" occupancy="17.22" waitingTime="0.00" speed="19.60" departed="0" arrived="0" entered="41" left="36" laneChangedFrom="0" laneChangedTo="0"/>
        <edge id="3/1to4/1" sampledSeconds="1567.88" traveltime="50.00" density="26.67" occupancy="13.33" waitingTime="0.00" speed="19.60" departed="0" arrived="0" entered="36" left="30" laneChangedFrom="0" laneChangedTo="0"/>
        <edge id="4/1to5/1" sampledSeconds="1507.56" traveltime="50.00" density="25.64" occupancy="12.82" waitingTime="0.00" speed="19.60" departed="0" arrived="0" entered="30" left="30" laneChangedFrom="0" laneChangedTo="0"/>
        <edge id="5/1to6/1" sampledSeconds="1507.56" traveltime="50.00" density="25.64" occupancy="12.82" waitingTime="0.00" speed="19.60" departed="0" arrived="0" entered="30" left="30" laneChangedFrom="0" laneChangedTo="0"/>
        <edge id="6/1to7/1" sampledSeconds="1507.56" traveltime="50.00" density="25.64" occupancy="12.82" waitingTime="0.00" speed="19.60" departed="0" arrived="0" entered="30" left="30" laneChangedFrom="0" laneChangedTo="0"/>
        <edge id="7/1to8/1" sampledSeconds="1507.56" traveltime="50.00" density="25.64" occupancy="12.82" waitingTime="0.00" speed="19.60" departed="0" arrived="0" entered="30" left="30" laneChangedFrom="0" laneChangedTo="0"/>
        <edge id="8/1to9/1" sampledSeconds="1507.56" traveltime="50.00" density="25.64" occupancy="12.82" waitingTime="0.00" speed="19.60" departed="0" arrived="0" entered="30" left="30" laneChangedFrom="0" laneChangedTo="0"/>
        <edge id="9/1to10/1" sampledSeconds="1507.56" traveltime="50.00" density="25.64" occupancy="12.82" waitingTime="0.00" speed="19.60" departed="0" arrived="0" entered="30" left="30" laneChangedFrom="0" laneChangedTo="0"/>
    </interval>
    <interval begin="660.00" end="720.00" id="dump_60">
        <edge id="1/1to2/1" sampledSeconds="1508.93" traveltime="50.00" density="25.66" occupancy="12.83" waitingTime="0.00" speed="19.60" departed="0" arrived="0" entered="30" left="30" laneChangedFrom="0" laneChangedTo="0"/>
        <edge id="10/1to1/1" sampledSeconds="1507.56" traveltime="50.00" density="25.64" occupancy="12.82" waitingTime="0.00" speed="19.60" departed="0" arrived="0" entered="30" left="30" laneChangedFrom="0" laneChangedTo="0"/>
        <edge id="2/1to3/1" sampledSeconds="1687.14" traveltime="50.00" density="28.69" occupancy="14.35" waitingTime="0.00" speed="19.60" departed="0" arrived="0" entered="31" left="39" laneChangedFrom="0" laneChangedTo="0"/>
        <edge id="3/1to4/1" sampledSeconds="2058.31" traveltime="50.00" density="35.01" occupancy="17.50" waitingTime="0.00" speed="19.60" departed="0" arrived="0" entered="39" left="38" laneChangedFrom="0" laneChangedTo="0"/>
        <edge id="4/1to5/1" sampledSeconds="1632.17" traveltime="50.00" density="27.76" occupancy="13.88" waitingTime="0.00" speed="19.60" departed="0" arrived="0" entered="38" left="30" laneChangedFrom="0" laneChangedTo="0"/>
        <edge id="5/1to6/1" sampledSeconds="1507.56" traveltime="50.00" density="25.64" occupancy="12.82" waitingTime="0.00" speed="19.60" departed="0" arrived="0" entered="30" left="30" laneChangedFrom="0" laneChangedTo="0"/>
        <edge id="6/1to7/1" sampledSeconds="1507.56" traveltime="50.00" density="25.64" occupancy="12.82" waitingTime="0.00" speed="19.60" departed="0" arrived="0" entered="30" left="30" laneChangedFrom="0" laneChangedTo="0"/>
        <edge id="7/1to8/1" sampledSeconds="1507.56" traveltime="50.00" density="25.64" occupancy="12.82" waitingTime="0.00" speed="19.60" departed="0" arrived="0" entered="30" left="30" laneChangedFrom="0" laneChangedTo="0"/>
        <edge id="8/1to9/1" sampledSeconds="1507.56" traveltime="50.00" density="25.64" occupancy="12.82" waitingTime="0.00" speed="19.60" departed="0" arrived="0" entered="30" left="30" laneChangedFrom="0" laneChangedTo="0"/>
        <edge id="9/1to10/1" sampledSeconds="1507.56" traveltime="50.00" density="25.64" occupancy="12.82" waitingTime="0.00" speed="19.60" departed="0" arrived="0" entered="30" left="30" laneChangedFrom="0" laneChangedTo="0"/>
    </interval>
    <interval begin="720.00" end="780.00" id="dump_60">
        <edge id="1/1to2/1" sampledSeconds="1507.56" traveltime="50.00" density="25.64" occupancy="12.82" waitingTime="0.00" speed="19.60" departed="0" arrived="0" entered="30" left="30" laneChangedFrom="0" laneChangedTo="0"/>
        <edge id="10/1to1/1" sampledSeconds="1507.56" traveltime="50.00" density="25.64" occupancy="12.82" waitingTime="0.00" speed="19.60" departed="0" arrived="0" entered="30" left="30" laneChangedFrom="0" laneChangedTo="0"/>
        <edge id="2/1to3/1" sampledSeconds="1507.76" traveltime="50.00" density="25.64" occupancy="12.82" waitingTime="0.00" speed="19.60" departed="0" arrived="0" entered="30" left="30" laneChangedFrom="0" laneChangedTo="0"/>
        <edge id="3/1to4/1" sampledSeconds="1612.29" traveltime="50.00" density="27.42" occupancy="13.71" waitingTime="0.00" speed="19.60" departed="0" arrived="0" entered="30" left="37" laneChangedFrom="0" laneChangedTo="0"/>
        <edge id="4/1to5/1" sampledSeconds="2047.05" traveltime="50.00" density="34.82" occupancy="17.41" waitingTime="0.00" speed="19.60" departed="0" arrived="0" entered="37" left="40" laneChangedFrom="0" laneChangedTo="0"/>
        <edge id="5/1to6/1" sampledSeconds="1719.34" traveltime="50.00" density="29.24" occupancy="14.62" waitingTime="0.00" speed="19.60" departed="0" arrived="0" entered="40" left="30" laneChangedFrom="0" laneChangedTo="0"/>
        <edge id="6/1to7/1" sampledSeconds="1507.56" traveltime="50.00" density="25.64" occupancy="12.82" waitingTime="0.00" speed="19.60" departed="0" arrived="0" entered="30" left="30" laneChangedFrom="0" laneChangedTo="0"/>
        <edge id="7/1to8/1" sampledSeconds="1507.56" traveltime="50.00" density="25.64" occupancy="12.82" waitingTime="0.00" speed="19.60" departed="0" arrived="0" entered="30" left="30" laneChangedFrom="0" laneChangedTo="0"/>
        <edge id="8/1to9/1" sampledSeconds="1507.56" traveltime="50.00" density="25.64" occupancy="12.82" waitingTime="0.00" speed="19.60" departed="0" arrived="0" entered="30" left="30" laneChangedFrom="0" laneChangedTo="0"/>
        <edge id="9/1to10/1" sampledSeconds="1507.56" traveltime="50.00" density="25.64" occupancy="12.82" waitingTime="0.00" speed="19.60" departed="0" arrived="0" entered="30" left="30" laneChangedFrom="0" laneChangedTo="0"/>
    </interval>
    <interval begin="780.00" end="840.00" id="dump_60">
        <edge id="1/1to2/1" sampledSeconds="1507.56" traveltime="50.00" density="25.64" occupancy="12.82" waitingTime="0.00" speed="19.60" departed="0" arrived="0" entered="30" left="30" laneChangedFrom="0" laneChangedTo="0"/>
        <edge id="10/1to1/1" sampledSeconds="1507.56" traveltime="50.00" density="25.64" occupancy="12.82" waitingTime="0.00" speed="19.60" departed="0" arrived="0" entered="30" left="30" laneChangedFrom="0" laneChangedTo="0"/>
        <edge id="2/1to3/1" sampledSeconds="1507.56" traveltime="50.00" density="25.64" occupancy="12.82" waitingTime="0.00" speed="19.60" departed="0" arrived="0" entered="30" left="30" laneChangedFrom="0" laneChangedTo="0"/>
        <edge id="3/1to4/1" sampledSeconds="1507.56" traveltime="50.00" density="25.64" occupancy="12.82" waitingTime="0.00" speed="19.60" departed="0" arrived="0" entered="30" left="30" laneChangedFrom="0" laneChangedTo="0"/>
        <edge id="4/1to5/1" sampledSeconds="1559.11" traveltime="50.00" density="26.52" occupancy="13.26" waitingTime="0.00" speed="19.60" departed="0" arrived="0" entered="30" left="35" laneChangedFrom="0" laneChangedTo="0"/>
        <edge id="5/1to6/1" sampledSeconds="1990.93" traveltime="50.00" density="33.86" occupancy="16.93" waitingTime="0.00" speed="19.60" departed="0" arrived="0" entered="34" left="42" laneChangedFrom="0" laneChangedTo="0"/>
        <edge id="6/1to7/1" sampledSeconds="1828.85" traveltime="50.00" density="31.10" occupancy="15.55" waitingTime="0.00" speed="19.60" departed="0" arrived="0" entered="42" left="31" laneChangedFrom="0" laneChangedTo="0"/>
        <edge id="7/1to8/1" sampledSeconds="1507.51" traveltime="50.00" density="25.64" occupancy="12.82" waitingTime="0.00" speed="19.60" departed="0" arrived="0" entered="31" left="30" laneChangedFrom="0" laneChangedTo="0"/>
        <edge id="8/1to9/1" sampledSeconds="1507.56" traveltime="50.00" density="25.64" occupancy="12.82" waitingTime="0.00" speed="19.60" departed="0" arrived="0" entered="30" left="30" laneChangedFrom="0" laneChangedTo="0"/>
        <edge id="9/1to10/1" sampledSeconds="1507.56" traveltime="50.00" density="25.64" occupancy="12.82" waitingTime="0.00" speed="19.60" departed="0" arrived="0" entered="30" left="30" laneChangedFrom="0" laneChangedTo="0"/>
    </interval>
    <interval begin="840.00" end="900.00" id="dump_60">
        <edge id="1/1to2/1" sampledSeconds="1507.56" traveltime="50.00" density="25.64" occupancy="12.82" waitingTime="0.00" speed="19.60" departed="0" arrived="0" entered="30" left="30" laneChangedFrom="0" laneChangedTo="0"/>
        <edge id="10/1to1/1" sampledSeconds="1507.56" traveltime="50.00" density="25.64" occupancy="12.82" waitingTime="0.00" speed="19.60" departed="0" arrived="0" entered="30" left="30" laneChangedFrom="0" laneChangedTo="0"/>
        <edge id="2/1to3/1" sampledSeconds="1507.56" traveltime="50.00" density="25.64" occupancy="12.82" waitingTime="0.00" speed="19.60" departed="0" arrived="0" entered="30" left="30" laneChangedFrom="0" laneChangedTo="0"/>
        <edge id="3/1to4/1" sampledSeconds="1507.56" traveltime="50.00" density="25.64" occupancy="12.82" waitingTime="0.00" speed="19.60" departed="0" arrived="0" entered="30" left="30" laneChangedFrom="0" laneChangedTo="0"/>
        <edge id="4/1to5/1" sampledSeconds="1507.56" traveltime="50.00" density="25.64" occupancy="12.82" waitingTime="0.00" speed="19.60" departed="0" arrived="0" entered="30" left="30" laneChangedFrom="0" laneChangedTo="0"/>
        <edge id="5/1to6/1" sampledSeconds="1528.06" traveltime="50.00" density="25.99" occupancy="12.99" waitingTime="0.00" speed="19.60" departed="0" arrived="0" entered="30" left="32" laneChangedFrom="0" laneChangedTo="0"/>
        <edge id="6/1to7/1" sampledSeconds="1895.93" traveltime="50.00" density="32.25" occupancy="16.12" waitingTime="0.00" speed="19.60" departed="0" arrived="0" entered="32" left="43" laneChangedFrom="0" laneChangedTo="0"/>
        <edge id="7/1to8/1" sampledSeconds="1938.78" traveltime="50.00" density="32.97" occupancy="16.49" waitingTime="0.00" speed="19.60" departed="0" arrived="0" entered="43" left="33" laneChangedFrom="0" laneChangedTo="0"/>
        <edge id="8/1to9/1" sampledSeconds="1523.85" traveltime="50.00" density="25.92" occupancy="12.96" waitingTime="0.00" speed="19.60" departed="0" arrived="0" entered="33" left="30" laneChangedFrom="0" laneChangedTo="0"/>
        <edge id="9/1to10/1" sampledSeconds="1507.56" traveltime="50.00" density="25.64" occupancy="12.82" waitingTime="0.00" speed="19.60" departed="0" arrived="0" entered="30" left="30" laneChangedFrom="0" laneChangedTo="0"/>
    </interval>
    <interval begin="900.00" end="960.00" id="dump_60">
        <edge id="1/1to2/1" sampledSeconds="1507.56" traveltime="50.00" density="25.64" occupancy="12.82" waitingTime="0.00" speed="19.60" departed="0" arrived="0" entered="30" left="30" laneChangedFrom="0" laneChangedTo="0"/>
        <edge id="10/1to1/1" sampledSeconds="1507.56" traveltime="50.00" density="25.64" occupancy="12.82" waitingTime="0.00" speed="19.60" departed="0" arrived="0" entered="30" left="30" laneChangedFrom="0" laneChangedTo="0"/>
        <edge id="2/1to3/1" sampledSeconds="1507.56" traveltime="50.00" density="25.64" occupancy="12.82" waitingTime="0.00" speed="19.60" departed="0" arrived="0" entered="30" left="30" laneChangedFrom="0" laneChangedTo="0"/>
        <edge id="3/1to4/1" sampledSeconds="1507.56" traveltime="50.00" density="25.64" occupancy="12.82" waitingTime="0.00" speed="19.60" departed="0" arrived="0" entered="30" left="30" laneChangedFrom="0" laneChangedTo="0"/>
        <edge id="4/1to5/1" sampledSeconds="1507.56" traveltime="50.00" density="25.64" occupancy="12.82" waitingTime="0.00" speed="19.60" departed="0" arrived="0" entered="30" left="30" laneChangedFrom="0" laneChangedTo="0"/>
        <edge id="5/1to6/1" sampledSeconds="1507.56" traveltime="50.00" density="25.64" occupancy="12.82" waitingTime="0.00" speed="19.60" departed="0" arrived="0" entered="30" left="30" laneChangedFrom="0" laneChangedTo="0"/>