<?xml version="1.0" encoding="UTF-8"?>

<!-- generated on Tue Sep  8 08:46:43 2015 by SUMO Version dev-SVN-r18793I
<?xml version="1.0" encoding="UTF-8"?>

<configuration xmlns:xsi="http://www.w3.org/2001/XMLSchema-instance" xsi:noNamespaceSchemaLocation="http://sumo.dlr.de/xsd/sumoConfiguration.xsd">

    <input>
        <net-file value="net.net.xml"/>
        <route-files value="input_routes.rou.xml"/>
        <additional-files value="input_additional.add.xml"/>
    </input>

    <time>
        <begin value="0"/>
        <end value="10000"/>
    </time>

    <report>
        <xml-validation value="never"/>
        <no-duration-log value="true"/>
        <no-step-log value="true"/>
    </report>

</configuration>
-->

<meandata xmlns:xsi="http://www.w3.org/2001/XMLSchema-instance" xsi:noNamespaceSchemaLocation="http://sumo.dlr.de/xsd/meandata_file.xsd">
    <interval begin="0.00" end="60.00" id="dump_60">
        <edge id="1/1to2/1" sampledSeconds="888.83" traveltime="55.97" density="15.12" occupancy="7.56" waitingTime="0.00" speed="17.51" departed="30" arrived="0" entered="0" left="3" laneChangedFrom="0" laneChangedTo="0"/>
        <edge id="2/1to3/1" sampledSeconds="11.47" traveltime="50.00" density="0.20" occupancy="0.10" waitingTime="0.00" speed="19.60" departed="0" arrived="0" entered="3" left="0" laneChangedFrom="0" laneChangedTo="0"/>
    </interval>
    <interval begin="60.00" end="120.00" id="dump_60">
        <edge id="1/1to2/1" sampledSeconds="1598.33" traveltime="53.28" density="27.18" occupancy="13.59" waitingTime="0.00" speed="18.39" departed="30" arrived="0" entered="0" left="30" laneChangedFrom="0" laneChangedTo="0"/>
        <edge id="2/1to3/1" sampledSeconds="1036.12" traveltime="50.00" density="17.62" occupancy="8.81" waitingTime="0.00" speed="19.60" departed="0" arrived="0" entered="30" left="8" laneChangedFrom="0" laneChangedTo="0"/>
        <edge id="3/1to4/1" sampledSeconds="69.37" traveltime="50.00" density="1.18" occupancy="0.59" waitingTime="0.00" speed="19.60" departed="0" arrived="0" entered="8" left="0" laneChangedFrom="0" laneChangedTo="0"/>
    </interval>
    <interval begin="120.00" end="180.00" id="dump_60">
        <edge id="1/1to2/1" sampledSeconds="1598.33" traveltime="53.28" density="27.18" occupancy="13.59" waitingTime="0.00" speed="18.39" departed="30" arrived="0" entered="0" left="30" laneChangedFrom="0" laneChangedTo="0"/>
        <edge id="2/1to3/1" sampledSeconds="1507.56" traveltime="50.00" density="25.64" occupancy="12.82" waitingTime="0.00" speed="19.60" departed="0" arrived="0" entered="30" left="30" laneChangedFrom="0" laneChangedTo="0"/>
        <edge id="3/1to4/1" sampledSeconds="1225.69" traveltime="50.00" density="20.85" occupancy="10.42" waitingTime="0.00" speed="19.60" departed="0" arrived="0" entered="30" left="13" laneChangedFrom="0" laneChangedTo="0"/>
        <edge id="4/1to5/1" sampledSeconds="175.76" traveltime="50.00" density="2.99" occupancy="1.49" waitingTime="0.00" speed="19.60" departed="0" arrived="0" entered="13" left="0" laneChangedFrom="0" laneChangedTo="0"/>
    </interval>
    <interval begin="180.00" end="240.00" id="dump_60">
        <edge id="1/1to2/1" sampledSeconds="1598.33" traveltime="53.28" density="27.18" occupancy="13.59" waitingTime="0.00" speed="18.39" departed="30" arrived="0" entered="0" left="30" laneChangedFrom="0" laneChangedTo="0"/>
        <edge id="2/1to3/1" sampledSeconds="1507.56" traveltime="50.00" density="25.64" occupancy="12.82" waitingTime="0.00" speed="19.60" departed="0" arrived="0" entered="30" left="30" laneChangedFrom="0" laneChangedTo="0"/>
        <edge id="3/1to4/1" sampledSeconds="1507.56" traveltime="50.00" density="25.64" occupancy="12.82" waitingTime="0.00" speed="19.60" departed="0" arrived="0" entered="30" left="30" laneChangedFrom="0" laneChangedTo="0"/>
        <edge id="4/1to5/1" sampledSeconds="1366.78" traveltime="50.00" density="23.25" occupancy="11.62" waitingTime="0.00" speed="19.60" departed="0" arrived="0" entered="30" left="18" laneChangedFrom="0" laneChangedTo="0"/>
        <edge id="5/1to6/1" sampledSeconds="330.63" traveltime="50.00" density="5.62" occupancy="2.81" waitingTime="0.00" speed="19.60" departed="0" arrived="0" entered="18" left="0" laneChangedFrom="0" laneChangedTo="0"/>
    </interval>
    <interval begin="240.00" end="300.00" id="dump_60">
        <edge id="1/1to2/1" sampledSeconds="1598.33" traveltime="53.28" density="27.18" occupancy="13.59" waitingTime="0.00" speed="18.39" departed="30" arrived="0" entered="0" left="30" laneChangedFrom="0" laneChangedTo="0"/>
        <edge id="2/1to3/1" sampledSeconds="1507.56" traveltime="50.00" density="25.64" occupancy="12.82" waitingTime="0.00" speed="19.60" departed="0" arrived="0" entered="30" left="30" laneChangedFrom="0" laneChangedTo="0"/>
        <edge id="3/1to4/1" sampledSeconds="1507.56" traveltime="50.00" density="25.64" occupancy="12.82" waitingTime="0.00" speed="19.60" departed="0" arrived="0" entered="30" left="30" laneChangedFrom="0" laneChangedTo="0"/>
        <edge id="4/1to5/1" sampledSeconds="1507.56" traveltime="50.00" density="25.64" occupancy="12.82" waitingTime="0.00" speed="19.60" departed="0" arrived="0" entered="30" left="30" laneChangedFrom="0" laneChangedTo="0"/>
        <edge id="5/1to6/1" sampledSeconds="1459.38" traveltime="50.00" density="24.82" occupancy="12.41" waitingTime="0.00" speed="19.60" departed="0" arrived="0" entered="30" left="23" laneChangedFrom="0" laneChangedTo="0"/>
        <edge id="6/1to7/1" sampledSeconds="533.99" traveltime="50.00" density="9.08" occupancy="4.54" waitingTime="0.00" speed="19.60" departed="0" arrived="0" entered="23" left="0" laneChangedFrom="0" laneChangedTo="0"/>
    </interval>
    <interval begin="300.00" end="360.00" id="dump_60">
        <edge id="1/1to2/1" sampledSeconds="1598.33" traveltime="53.28" density="27.18" occupancy="13.59" waitingTime="0.00" speed="18.39" departed="30" arrived="0" entered="0" left="30" laneChangedFrom="0" laneChangedTo="0"/>
        <edge id="2/1to3/1" sampledSeconds="1507.56" traveltime="50.00" density="25.64" occupancy="12.82" waitingTime="0.00" speed="19.60" departed="0" arrived="0" entered="30" left="30" laneChangedFrom="0" laneChangedTo="0"/>
        <edge id="3/1to4/1" sampledSeconds="1507.56" traveltime="50.00" density="25.64" occupancy="12.82" waitingTime="0.00" speed="19.60" departed="0" arrived="0" entered="30" left="30" laneChangedFrom="0" laneChangedTo="0"/>
        <edge id="4/1to5/1" sampledSeconds="1507.56" traveltime="50.00" density="25.64" occupancy="12.82" waitingTime="0.00" speed="19.60" departed="0" arrived="0" entered="30" left="30" laneChangedFrom="0" laneChangedTo="0"/>
        <edge id="5/1to6/1" sampledSeconds="1507.56" traveltime="50.00" density="25.64" occupancy="12.82" waitingTime="0.00" speed="19.60" departed="0" arrived="0" entered="30" left="30" laneChangedFrom="0" laneChangedTo="0"/>
        <edge id="6/1to7/1" sampledSeconds="1503.49" traveltime="50.00" density="25.57" occupancy="12.79" waitingTime="0.00" speed="19.60" departed="0" arrived="0" entered="30" left="28" laneChangedFrom="0" laneChangedTo="0"/>
        <edge id="7/1to8/1" sampledSeconds="777.39" traveltime="50.00" density="13.22" occupancy="6.61" waitingTime="0.00" speed="19.60" departed="0" arrived="0" entered="28" left="3" laneChangedFrom="0" laneChangedTo="0"/>
        <edge id="8/1to9/1" sampledSeconds="8.74" traveltime="50.00" density="0.15" occupancy="0.07" waitingTime="0.00" speed="19.60" departed="0" arrived="0" entered="3" left="0" laneChangedFrom="0" laneChangedTo="0"/>
    </interval>
    <interval begin="360.00" end="420.00" id="dump_60">
        <edge id="1/1to2/1" sampledSeconds="1598.33" traveltime="53.28" density="27.18" occupancy="13.59" waitingTime="0.00" speed="18.39" departed="30" arrived="0" entered="0" left="30" laneChangedFrom="0" laneChangedTo="0"/>
        <edge id="2/1to3/1" sampledSeconds="1507.56" traveltime="50.00" density="25.64" occupancy="12.82" waitingTime="0.00" speed="19.60" departed="0" arrived="0" entered="30" left="30" laneChangedFrom="0" laneChangedTo="0"/>
        <edge id="3/1to4/1" sampledSeconds="1507.56" traveltime="50.00" density="25.64" occupancy="12.82" waitingTime="0.00" speed="19.60" departed="0" arrived="0" entered="30" left="30" laneChangedFrom="0" laneChangedTo="0"/>
        <edge id="4/1to5/1" sampledSeconds="1507.56" traveltime="50.00" density="25.64" occupancy="12.82" waitingTime="0.00" speed="19.60" departed="0" arrived="0" entered="30" left="30" laneChangedFrom="0" laneChangedTo="0"/>
        <edge id="5/1to6/1" sampledSeconds="1507.56" traveltime="50.00" density="25.64" occupancy="12.82" waitingTime="0.00" speed="19.60" departed="0" arrived="0" entered="30" left="30" laneChangedFrom="0" laneChangedTo="0"/>
        <edge id="6/1to7/1" sampledSeconds="1507.56" traveltime="50.00" density="25.64" occupancy="12.82" waitingTime="0.00" speed="19.60" departed="0" arrived="0" entered="30" left="30" laneChangedFrom="0" laneChangedTo="0"/>
        <edge id="7/1to8/1" sampledSeconds="1507.56" traveltime="50.00" density="25.64" occupancy="12.82" waitingTime="0.00" speed="19.60" departed="0" arrived="0" entered="30" left="30" laneChangedFrom="0" laneChangedTo="0"/>
        <edge id="8/1to9/1" sampledSeconds="1016.12" traveltime="50.00" density="17.28" occupancy="8.64" waitingTime="0.00" speed="19.60" departed="0" arrived="0" entered="30" left="8" laneChangedFrom="0" laneChangedTo="0"/>
        <edge id="9/1to10/1" sampledSeconds="62.10" traveltime="50.00" density="1.06" occupancy="0.53" waitingTime="0.00" speed="19.60" departed="0" arrived="0" entered="8" left="0" laneChangedFrom="0" laneChangedTo="0"/>
    </interval>
    <interval begin="420.00" end="480.00" id="dump_60">
        <edge id="1/1to2/1" sampledSeconds="1598.33" traveltime="53.28" density="27.18" occupancy="13.59" waitingTime="0.00" speed="18.39" departed="30" arrived="0" entered="0" left="30" laneChangedFrom="0" laneChangedTo="0"/>
        <edge id="10/1to1/1" sampledSeconds="163.94" traveltime="51.80" density="2.79" occupancy="1.39" waitingTime="0.00" speed="18.92" departed="0" arrived="0" entered="13" left="0" laneChangedFrom="0" laneChangedTo="0"/>
        <edge id="2/1to3/1" sampledSeconds="1507.56" traveltime="50.00" density="25.64" occupancy="12.82" waitingTime="0.00" speed="19.60" departed="0" arrived="0" entered="30" left="30" laneChangedFrom="0" laneChangedTo="0"/>
        <edge id="3/1to4/1" sampledSeconds="1507.56" traveltime="50.00" density="25.64" occupancy="12.82" waitingTime="0.00" speed="19.60" departed="0" arrived="0" entered="30" left="30" laneChangedFrom="0" laneChangedTo="0"/>
        <edge id="4/1to5/1" sampledSeconds="1507.56" traveltime="50.00" density="25.64" occupancy="12.82" waitingTime="0.00" speed="19.60" departed="0" arrived="0" entered="30" left="30" laneChangedFrom="0" laneChangedTo="0"/>
        <edge id="5/1to6/1" sampledSeconds="1507.56" traveltime="50.00" density="25.64" occupancy="12.82" waitingTime="0.00" speed="19.60" departed="0" arrived="0" entered="30" left="30" laneChangedFrom="0" laneChangedTo="0"/>
        <edge id="6/1to7/1" sampledSeconds="1507.56" traveltime="50.00" density="25.64" occupancy="12.82" waitingTime="0.00" speed="19.60" departed="0" arrived="0" entered="30" left="30" laneChangedFrom="0" laneChangedTo="0"/>
        <edge id="7/1to8/1" sampledSeconds="1507.56" traveltime="50.00" density="25.64" occupancy="12.82" waitingTime="0.00" speed="19.60" departed="0" arrived="0" entered="30" left="30" laneChangedFrom="0" laneChangedTo="0"/>
        <edge id="8/1to9/1" sampledSeconds="1507.56" traveltime="50.00" density="25.64" occupancy="12.82" waitingTime="0.00" speed="19.60" departed="0" arrived="0" entered="30" left="30" laneChangedFrom="0" laneChangedTo="0"/>
        <edge id="9/1to10/1" sampledSeconds="1210.23" traveltime="50.00" density="20.58" occupancy="10.29" waitingTime="0.00" speed="19.60" departed="0" arrived="0" entered="30" left="13" laneChangedFrom="0" laneChangedTo="0"/>
    </interval>
    <interval begin="480.00" end="540.00" id="dump_60">
        <edge id="1/1to2/1" sampledSeconds="1598.33" traveltime="53.28" density="27.18" occupancy="13.59" waitingTime="0.00" speed="18.39" departed="30" arrived="0" entered="0" left="30" laneChangedFrom="0" laneChangedTo="0"/>
        <edge id="10/1to1/1" sampledSeconds="1668.32" traveltime="69.56" density="28.37" occupancy="14.19" waitingTime="0.00" speed="14.09" departed="0" arrived="0" entered="30" left="0" laneChangedFrom="0" laneChangedTo="0"/>
        <edge id="2/1to3/1" sampledSeconds="1507.56" traveltime="50.00" density="25.64" occupancy="12.82" waitingTime="0.00" speed="19.60" departed="0" arrived="0" entered="30" left="30" laneChangedFrom="0" laneChangedTo="0"/>
        <edge id="3/1to4/1" sampledSeconds="1507.56" traveltime="50.00" density="25.64" occupancy="12.82" waitingTime="0.00" speed="19.60" departed="0" arrived="0" entered="30" left="30" laneChangedFrom="0" laneChangedTo="0"/>
        <edge id="4/1to5/1" sampledSeconds="1507.56" traveltime="50.00" density="25.64" occupancy="12.82" waitingTime="0.00" speed="19.60" departed="0" arrived="0" entered="30" left="30" laneChangedFrom="0" laneChangedTo="0"/>
        <edge id="5/1to6/1" sampledSeconds="1507.56" traveltime="50.00" density="25.64" occupancy="12.82" waitingTime="0.00" speed="19.60" departed="0" arrived="0" entered="30" left="30" laneChangedFrom="0" laneChangedTo="0"/>
        <edge id="6/1to7/1" sampledSeconds="1507.56" traveltime="50.00" density="25.64" occupancy="12.82" waitingTime="0.00" speed="19.60" departed="0" arrived="0" entered="30" left="30" laneChangedFrom="0" laneChangedTo="0"/>
        <edge id="7/1to8/1" sampledSeconds="1507.56" traveltime="50.00" density="25.64" occupancy="12.82" waitingTime="0.00" speed="19.60" departed="0" arrived="0" entered="30" left="30" laneChangedFrom="0" laneChangedTo="0"/>
        <edge id="8/1to9/1" sampledSeconds="1507.56" traveltime="50.00" density="25.64" occupancy="12.82" waitingTime="0.00" speed="19.60" departed="0" arrived="0" entered="30" left="30" laneChangedFrom="0" laneChangedTo="0"/>
        <edge id="9/1to10/1" sampledSeconds="1507.56" traveltime="50.00" density="25.64" occupancy="12.82" waitingTime="0.00" speed="19.60" departed="0" arrived="0" entered="30" left="30" laneChangedFrom="0" laneChangedTo="0"/>
    </interval>
    <interval begin="540.00" end="600.00" id="dump_60">
        <edge id="1/1to2/1" sampledSeconds="1905.54" traveltime="50.26" density="32.41" occupancy="16.20" waitingTime="0.00" speed="19.50" departed="0" arrived="0" entered="42" left="32" laneChangedFrom="0" laneChangedTo="0"/>
        <edge id="10/1to1/1" sampledSeconds="2259.05" traveltime="70.98" density="38.42" occupancy="19.21" waitingTime="0.00" speed="13.81" departed="0" arrived="0" entered="30" left="42" laneChangedFrom="0" laneChangedTo="0"/>
        <edge id="2/1to3/1" sampledSeconds="1514.71" traveltime="50.00" density="25.76" occupancy="12.88" waitingTime="0.00" speed="19.60" departed="0" arrived="0" entered="32" left="30" laneChangedFrom="0" laneChangedTo="0"/>
        <edge id="3/1to4/1" sampledSeconds="1507.56" traveltime="50.00" density="25.64" occupancy="12.82" waitingTime="0.00" speed="19.60" departed="0" arrived="0" entered="30" left="30" laneChangedFrom="0" laneChangedTo="0"/>
        <edge id="4/1to5/1" sampledSeconds="1507.56" traveltime="50.00" density="25.64" occupancy="12.82" waitingTime="0.00" speed="19.60" departed="0" arrived="0" entered="30" left="30" laneChangedFrom="0" laneChangedTo="0"/>
        <edge id="5/1to6/1" sampledSeconds="1507.56" traveltime="50.00" density="25.64" occupancy="12.82" waitingTime="0.00" speed="19.60" departed="0" arrived="0" entered="30" left="30" laneChangedFrom="0" laneChangedTo="0"/>
        <edge id="6/1to7/1" sampledSeconds="1507.56" traveltime="50.00" density="25.64" occupancy="12.82" waitingTime="0.00" speed="19.60" departed="0" arrived="0" entered="30" left="30" laneChangedFrom="0" laneChangedTo="0"/>
        <edge id="7/1to8/1" sampledSeconds="1507.56" traveltime="50.00" density="25.64" occupancy="12.82" waitingTime="0.00" speed="19.60" departed="0" arrived="0" entered="30" left="30" laneChangedFrom="0" laneChangedTo="0"/>
        <edge id="8/1to9/1" sampledSeconds="1507.56" traveltime="50.00" density="25.64" occupancy="12.82" waitingTime="0.00" speed="19.60" departed="0" arrived="0" entered="30" left="30" laneChangedFrom="0" laneChangedTo="0"/>
        <edge id="9/1to10/1" sampledSeconds="1507.56" traveltime="50.00" density="25.64" occupancy="12.82" waitingTime="0.00" speed="19.60" departed="0" arrived="0" entered="30" left="30" laneChangedFrom="0" laneChangedTo="0"/>
    </interval>
    <interval begin="600.00" end="660.00" id="dump_60">
        <edge id="1/1to2/1" sampledSeconds="2047.02" traveltime="50.00" density="34.82" occupancy="17.41" waitingTime="0.00" speed="19.60" departed="0" arrived="0" entered="36" left="44" laneChangedFrom="0" laneChangedTo="0"/>
        <edge id="10/1to1/1" sampledSeconds="1589.44" traveltime="50.10" density="27.03" occupancy="13.52" waitingTime="0.00" speed="19.56" departed="0" arrived="0" entered="30" left="36" laneChangedFrom="0" laneChangedTo="0"/>
        <edge id="2/1to3/1" sampledSeconds="2006.73" traveltime="50.00" density="34.13" occupancy="17.07" waitingTime="0.00" speed="19.60" departed="0" arrived="0" entered="44" left="35" laneChangedFrom="0" laneChangedTo="0"/>
        <edge id="3/1to4/1" sampledSeconds="1544.00" traveltime="50.00" density="26.26" occupancy="13.13" waitingTime="0.00" speed="19.60" departed="0" arrived="0" entered="34" left="30" laneChangedFrom="0" laneChangedTo="0"/>
        <edge id="4/1to5/1" sampledSeconds="1507.56" traveltime="50.00" density="25.64" occupancy="12.82" waitingTime="0.00" speed="19.60" departed="0" arrived="0" entered="30" left="30" laneChangedFrom="0" laneChangedTo="0"/>
        <edge id="5/1to6/1" sampledSeconds="1507.56" traveltime="50.00" density="25.64" occupancy="12.82" waitingTime="0.00" speed="19.60" departed="0" arrived="0" entered="30" left="30" laneChangedFrom="0" laneChangedTo="0"/>
        <edge id="6/1to7/1" sampledSeconds="1507.56" traveltime="50.00" density="25.64" occupancy="12.82" waitingTime="0.00" speed="19.60" departed="0" arrived="0" entered="30" left="30" laneChangedFrom="0" laneChangedTo="0"/>
        <edge id="7/1to8/1" sampledSeconds="1507.56" traveltime="50.00" density="25.64" occupancy="12.82" waitingTime="0.00" speed="19.60" departed="0" arrived="0" entered="30" left="30" laneChangedFrom="0" laneChangedTo="0"/>
        <edge id="8/1to9/1" sampledSeconds="1507.56" traveltime="50.00" density="25.64" occupancy="12.82" waitingTime="0.00" speed="19.60" departed="0" arrived="0" entered="30" left="30" laneChangedFrom="0" laneChangedTo="0"/>
        <edge id="9/1to10/1" sampledSeconds="1507.56" traveltime="50.00" density="25.64" occupancy="12.82" waitingTime="0.00" speed="19.60" departed="0" arrived="0" entered="30" left="30" laneChangedFrom="0" laneChangedTo="0"/>
    </interval>
    <interval begin="660.00" end="720.00" id="dump_60">
        <edge id="1/1to2/1" sampledSeconds="1545.51" traveltime="50.00" density="26.29" occupancy="13.14" waitingTime="0.00" speed="19.60" departed="0" arrived="0" entered="30" left="34" laneChangedFrom="0" laneChangedTo="0"/>
        <edge id="10/1to1/1" sampledSeconds="1507.56" traveltime="50.00" density="25.64" occupancy="12.82" waitingTime="0.00" speed="19.60" departed="0" arrived="0" entered="30" left="30" laneChangedFrom="0" laneChangedTo="0"/>
        <edge id="2/1to3/1" sampledSeconds="1954.96" traveltime="50.00" density="33.25" occupancy="16.62" waitingTime="0.00" speed="19.60" departed="0" arrived="0" entered="34" left="43" laneChangedFrom="0" laneChangedTo="0"/>
        <edge id="3/1to4/1" sampledSeconds="2090.30" traveltime="50.00" density="35.55" occupancy="17.78" waitingTime="0.00" speed="19.60" departed="0" arrived="0" entered="44" left="37" laneChangedFrom="0" laneChangedTo="0"/>
        <edge id="4/1to5/1" sampledSeconds="1596.53" traveltime="50.00" density="27.15" occupancy="13.58" waitingTime="0.00" speed="19.60" departed="0" arrived="0" entered="37" left="30" laneChangedFrom="0" laneChangedTo="0"/>
        <edge id="5/1to6/1" sampledSeconds="1507.56" traveltime="50.00" density="25.64" occupancy="12.82" waitingTime="0.00" speed="19.60" departed="0" arrived="0" entered="30" left="30" laneChangedFrom="0" laneChangedTo="0"/>
        <edge id="6/1to7/1" sampledSeconds="1507.56" traveltime="50.00" density="25.64" occupancy="12.82" waitingTime="0.00" speed="19.60" departed="0" arrived="0" entered="30" left="30" laneChangedFrom="0" laneChangedTo="0"/>
        <edge id="7/1to8/1" sampledSeconds="1507.56" traveltime="50.00" density="25.64" occupancy="12.82" waitingTime="0.00" speed="19.60" departed="0" arrived="0" entered="30" left="30" laneChangedFrom="0" laneChangedTo="0"/>
        <edge id="8/1to9/1" sampledSeconds="1507.56" traveltime="50.00" density="25.64" occupancy="12.82" waitingTime="0.00" speed="19.60" departed="0" arrived="0" entered="30" left="30" laneChangedFrom="0" laneChangedTo="0"/>
        <edge id="9/1to10/1" sampledSeconds="1507.56" traveltime="50.00" density="25.64" occupancy="12.82" waitingTime="0.00" speed="19.60" departed="0" arrived="0" entered="30" left="30" laneChangedFrom="0" laneChangedTo="0"/>
    </interval>
    <interval begin="720.00" end="780.00" id="dump_60">
        <edge id="1/1to2/1" sampledSeconds="1507.56" traveltime="50.00" density="25.64" occupancy="12.82" waitingTime="0.00" speed="19.60" departed="0" arrived="0" entered="30" left="30" laneChangedFrom="0" laneChangedTo="0"/>
        <edge id="10/1to1/1" sampledSeconds="1507.56" traveltime="50.00" density="25.64" occupancy="12.82" waitingTime="0.00" speed="19.60" departed="0" arrived="0" entered="30" left="30" laneChangedFrom="0" laneChangedTo="0"/>
        <edge id="2/1to3/1" sampledSeconds="1521.00" traveltime="50.00" density="25.87" occupancy="12.93" waitingTime="0.00" speed="19.60" departed="0" arrived="0" entered="30" left="32" laneChangedFrom="0" laneChangedTo="0"/>
        <edge id="3/1to4/1" sampledSeconds="1852.95" traveltime="50.00" density="31.51" occupancy="15.76" waitingTime="0.00" speed="19.60" departed="0" arrived="0" entered="32" left="42" laneChangedFrom="0" laneChangedTo="0"/>
        <edge id="4/1to5/1" sampledSeconds="2141.18" traveltime="50.00" density="36.42" occupancy="18.21" waitingTime="0.00" speed="19.60" departed="0" arrived="0" entered="42" left="39" laneChangedFrom="0" laneChangedTo="0"/>
        <edge id="5/1to6/1" sampledSeconds="1671.96" traveltime="50.00" density="28.44" occupancy="14.22" waitingTime="0.00" speed="19.60" departed="0" arrived="0" entered="39" left="30" laneChangedFrom="0" laneChangedTo="0"/>
        <edge id="6/1to7/1" sampledSeconds="1507.56" traveltime="50.00" density="25.64" occupancy="12.82" waitingTime="0.00" speed="19.60" departed="0" arrived="0" entered="30" left="30" laneChangedFrom="0" laneChangedTo="0"/>
        <edge id="7/1to8/1" sampledSeconds="1507.56" traveltime="50.00" density="25.64" occupancy="12.82" waitingTime="0.00" speed="19.60" departed="0" arrived="0" entered="30" left="30" laneChangedFrom="0" laneChangedTo="0"/>
        <edge id="8/1to9/1" sampledSeconds="1507.56" traveltime="50.00" density="25.64" occupancy="12.82" waitingTime="0.00" speed="19.60" departed="0" arrived="0" entered="30" left="30" laneChangedFrom="0" laneChangedTo="0"/>
        <edge id="9/1to10/1" sampledSeconds="1507.56" traveltime="50.00" density="25.64" occupancy="12.82" waitingTime="0.00" speed="19.60" departed="0" arrived="0" entered="30" left="30" laneChangedFrom="0" laneChangedTo="0"/>
    </interval>
    <interval begin="780.00" end="840.00" id="dump_60">
        <edge id="1/1to2/1" sampledSeconds="1507.56" traveltime="50.00" density="25.64" occupancy="12.82" waitingTime="0.00" speed="19.60" departed="0" arrived="0" entered="30" left="30" laneChangedFrom="0" laneChangedTo="0"/>
        <edge id="10/1to1/1" sampledSeconds="1507.56" traveltime="50.00" density="25.64" occupancy="12.82" waitingTime="0.00" speed="19.60" departed="0" arrived="0" entered="30" left="30" laneChangedFrom="0" laneChangedTo="0"/>
        <edge id="2/1to3/1" sampledSeconds="1507.56" traveltime="50.00" density="25.64" occupancy="12.82" waitingTime="0.00" speed="19.60" departed="0" arrived="0" entered="30" left="30" laneChangedFrom="0" laneChangedTo="0"/>
        <edge id="3/1to4/1" sampledSeconds="1510.05" traveltime="50.00" density="25.68" occupancy="12.84" waitingTime="0.00" speed="19.60" departed="0" arrived="0" entered="30" left="31" laneChangedFrom="0" laneChangedTo="0"/>
        <edge id="4/1to5/1" sampledSeconds="1751.72" traveltime="50.00" density="29.79" occupancy="14.90" waitingTime="0.00" speed="19.60" departed="0" arrived="0" entered="31" left="40" laneChangedFrom="0" laneChangedTo="0"/>
        <edge id="5/1to6/1" sampledSeconds="2154.84" traveltime="50.00" density="36.65" occupancy="18.32" waitingTime="0.00" speed="19.60" departed="0" arrived="0" entered="40" left="41" laneChangedFrom="0" laneChangedTo="0"/>
        <edge id="6/1to7/1" sampledSeconds="1770.28" traveltime="50.00" density="30.11" occupancy="15.05" waitingTime="0.00" speed="19.60" departed="0" arrived="0" entered="41" left="30" laneChangedFrom="0" laneChangedTo="0"/>
        <edge id="7/1to8/1" sampledSeconds="1507.56" traveltime="50.00" density="25.64" occupancy="12.82" waitingTime="0.00" speed="19.60" departed="0" arrived="0" entered="30" left="30" laneChangedFrom="0" laneChangedTo="0"/>
        <edge id="8/1to9/1" sampledSeconds="1507.56" traveltime="50.00" density="25.64" occupancy="12.82" waitingTime="0.00" speed="19.60" departed="0" arrived="0" entered="30" left="30" laneChangedFrom="0" laneChangedTo="0"/>
        <edge id="9/1to10/1" sampledSeconds="1507.56" traveltime="50.00" density="25.64" occupancy="12.82" waitingTime="0.00" speed="19.60" departed="0" arrived="0" entered="30" left="30" laneChangedFrom="0" laneChangedTo="0"/>
    </interval>
    <interval begin="840.00" end="900.00" id="dump_60">
        <edge id="1/1to2/1" sampledSeconds="1507.56" traveltime="50.00" density="25.64" occupancy="12.82" waitingTime="0.00" speed="19.60" departed="0" arrived="0" entered="30" left="30" laneChangedFrom="0" laneChangedTo="0"/>
        <edge id="10/1to1/1" sampledSeconds="1507.56" traveltime="50.00" density="25.64" occupancy="12.82" waitingTime="0.00" speed="19.60" departed="0" arrived="0" entered="30" left="30" laneChangedFrom="0" laneChangedTo="0"/>
        <edge id="2/1to3/1" sampledSeconds="1507.56" traveltime="50.00" density="25.64" occupancy="12.82" waitingTime="0.00" speed="19.60" departed="0" arrived="0" entered="30" left="30" laneChangedFrom="0" laneChangedTo="0"/>
        <edge id="3/1to4/1" sampledSeconds="1507.56" traveltime="50.00" density="25.64" occupancy="12.82" waitingTime="0.00" speed="19.60" departed="0" arrived="0" entered="30" left="30" laneChangedFrom="0" laneChangedTo="0"/>
        <edge id="4/1to5/1" sampledSeconds="1507.72" traveltime="50.00" density="25.64" occupancy="12.82" waitingTime="0.00" speed="19.60" departed="0" arrived="0" entered="30" left="31" laneChangedFrom="0" laneChangedTo="0"/>
        <edge id="5/1to6/1" sampledSeconds="1662.79" traveltime="50.00" density="28.28" occupancy="14.14" waitingTime="0.00" speed="19.60" departed="0" arrived="0" entered="30" left="38" laneChangedFrom="0" laneChangedTo="0"/>
        <edge id="6/1to7/1" sampledSeconds="2124.89" traveltime="50.00" density="36.14" occupancy="18.07" waitingTime="0.00" speed="19.60" departed="0" arrived="0" entered="38" left="44" laneChangedFrom="0" laneChangedTo="0"/>
        <edge id="7/1to8/1" sampledSeconds="1886.39" traveltime="50.00" density="32.08" occupancy="16.04" waitingTime="0.00" speed="19.60" departed="0" arrived="0" entered="44" left="32" laneChangedFrom="0" laneChangedTo="0"/>
        <edge id="8/1to9/1" sampledSeconds="1512.89" traveltime="50.00" density="25.73" occupancy="12.87" waitingTime="0.00" speed="19.60" departed="0" arrived="0" entered="32" left="30" laneChangedFrom="0" laneChangedTo="0"/>
        <edge id="9/1to10/1" sampledSeconds="1507.56" traveltime="50.00" density="25.64" occupancy="12.82" waitingTime="0.00" speed="19.60" departed="0" arrived="0" entered="30" left="30" laneChangedFrom="0" laneChangedTo="0"/>
    </interval>
    <interval begin="900.00" end="960.00" id="dump_60">
        <edge id="1/1to2/1" sampledSeconds="1507.56" traveltime="50.00" density="25.64" occupancy="12.82" waitingTime="0.00" speed="19.60" departed="0" arrived="0" entered="30" left="30" laneChangedFrom="0" laneChangedTo="0"/>
        <edge id="10/1to1/1" sampledSeconds="1507.56" traveltime="50.00" density="25.64" occupancy="12.82" waitingTime="0.00" speed="19.60" departed="0" arrived="0" entered="30" left="30" laneChangedFrom="0" laneChangedTo="0"/>
        <edge id="2/1to3/1" sampledSeconds="1507.56" traveltime="50.00" density="25.64" occupancy="12.82" waitingTime="0.00" speed="19.60" departed="0" arrived="0" entered="30" left="30" laneChangedFrom="0" laneChangedTo="0"/>
        <edge id="3/1to4/1" sampledSeconds="1507.56" traveltime="50.00" density="25.64" occupancy="12.82" waitingTime="0.00" speed="19.60" departed="0" arrived="0" entered="30" left="30" laneChangedFrom="0" laneChangedTo="0"/>
        <edge id="4/1to5/1" sampledSeconds="1507.56" traveltime="50.00" density="25.64" occupancy="12.82" waitingTime="0.00" speed="19.60" departed="0" arrived="0" entered="30" left="30" laneChangedFrom="0" laneChangedTo="0"/>
        <edge id="5/1to6/1" sampledSeconds="1507.56" traveltime="50.00" density="25.64" occupancy="12.82" waitingTime="0.00" speed="19.60" departed="0" arrived="0" entered="30" left="30" laneChangedFrom="0" laneChangedTo="0"/>