<?xml version="1.0"?>

<!-- generated on 03/07/12 10:10:19 by SUMO sumo Version dev-SVN-r12024
<?xml version="1.0" encoding="UTF-8"?>

<configuration xmlns:xsi="http://www.w3.org/2001/XMLSchema-instance" xsi:noNamespaceSchemaLocation="http://sumo.sf.net/xsd/sumoConfiguration.xsd">

    <input>
        <net-file value="net.net.xml"/>
        <additional-files value="input_routes.rou.xml,input_additional.add.xml"/>
    </input>

    <output>
        <netstate-dump value="rawdump.xml"/>
    </output>

    <time>
        <begin value="0"/>
        <end value="10"/>
    </time>

    <report>
        <no-duration-log value="true"/>
        <no-step-log value="true"/>
    </report>

</configuration>
-->

<sumo-netstate>
    <timestep time="0.00">
        <edge id="beg">
            <lane id="beg_0">
                <vehicle id="3" pos="424.40" speed="27.80"/>
                <vehicle id="2" pos="462.20" speed="27.80"/>
                <vehicle id="1" pos="500.00" speed="27.80"/>
            </lane>
            <lane id="beg_1"/>
            <lane id="beg_2"/>
        </edge>
    </timestep>
    <timestep time="1.00">
        <edge id="beg">
            <lane id="beg_0">
                <vehicle id="3" pos="449.46" speed="25.06"/>
                <vehicle id="2" pos="487.49" speed="25.29"/>
            </lane>
            <lane id="beg_1"/>
            <lane id="beg_2"/>
        </edge>
        <edge id="end">
            <lane id="end_0">
                <vehicle id="1" pos="27.64" speed="27.74"/>
            </lane>
            <lane id="end_1"/>
            <lane id="end_2"/>
        </edge>
    </timestep>
    <timestep time="2.00">
        <edge id="beg">
            <lane id="beg_0">
                <vehicle id="3" pos="472.93" speed="23.47"/>
            </lane>
            <lane id="beg_1"/>
            <lane id="beg_2"/>
        </edge>
        <edge id="end">
            <lane id="end_0">
                <vehicle id="2" pos="13.86" speed="26.47"/>
                <vehicle id="1" pos="54.80" speed="27.16"/>
            </lane>
            <lane id="end_1"/>
            <lane id="end_2"/>
        </edge>
    </timestep>
    <timestep time="3.00">
        <edge id="beg">
            <lane id="beg_0">
                <vehicle id="3" pos="497.81" speed="24.88"/>
            </lane>
            <lane id="beg_1"/>
            <lane id="beg_2"/>
        </edge>
        <edge id="end">
            <lane id="end_0">
                <vehicle id="2" pos="39.01" speed="25.15"/>
                <vehicle id="1" pos="82.28" speed="27.48"/>
            </lane>
            <lane id="end_1"/>
            <lane id="end_2"/>
        </edge>
    </timestep>
    <timestep time="4.00">
        <edge id="end">
            <lane id="end_0">
                <vehicle id="3" pos="21.47" speed="23.76"/>
                <vehicle id="2" pos="64.78" speed="25.76"/>
                <vehicle id="1" pos="110.07" speed="27.79"/>
            </lane>
            <lane id="end_1"/>
            <lane id="end_2"/>
        </edge>
    </timestep>
    <timestep time="5.00">
        <edge id="end">
            <lane id="end_0">
                <vehicle id="3" pos="46.27" speed="24.80"/>
                <vehicle id="2" pos="91.48" speed="26.70"/>
                <vehicle id="1" pos="137.14" speed="27.06"/>
            </lane>
            <lane id="end_1"/>
            <lane id="end_2"/>
        </edge>
    </timestep>
    <timestep time="6.00">
        <edge id="end">
            <lane id="end_0">
                <vehicle id="3" pos="72.31" speed="26.04"/>
                <vehicle id="2" pos="118.12" speed="26.64"/>
                <vehicle id="1" pos="163.80" speed="26.66"/>
            </lane>
            <lane id="end_1"/>
            <lane id="end_2"/>
        </edge>
    </timestep>
    <timestep time="7.00">
        <edge id="end">
            <lane id="end_0">
                <vehicle id="3" pos="98.32" speed="26.01"/>
                <vehicle id="2" pos="143.65" speed="25.53"/>
                <vehicle id="1" pos="191.54" speed="27.74"/>
            </lane>
            <lane id="end_1"/>
            <lane id="end_2"/>
        </edge>
    </timestep>
    <timestep time="8.00">
        <edge id="end">
            <lane id="end_0">
                <vehicle id="3" pos="123.19" speed="24.87"/>
                <vehicle id="2" pos="170.87" speed="27.21"/>
                <vehicle id="1" pos="218.51" speed="26.98"/>
            </lane>
            <lane id="end_1"/>
            <lane id="end_2"/>
        </edge>
    </timestep>
    <timestep time="9.00">
        <edge id="end">
            <lane id="end_0">
                <vehicle id="3" pos="149.10" speed="25.92"/>
                <vehicle id="2" pos="196.73" speed="25.86"/>
                <vehicle id="1" pos="245.16" speed="26.65"/>
            </lane>
            <lane id="end_1"/>
            <lane id="end_2"/>
        </edge>
    </timestep>
</sumo-netstate>
