<?xml version="1.0" encoding="UTF-8"?>

<!-- generated on Mon Aug  4 13:45:34 2014 by SUMO sumo Version dev-SVN-r16824
<?xml version="1.0" encoding="UTF-8"?>

<configuration xmlns:xsi="http://www.w3.org/2001/XMLSchema-instance" xsi:noNamespaceSchemaLocation="http://sumo.dlr.de/xsd/sumoConfiguration.xsd">

    <input>
        <net-file value="three_split.net.xml"/>
        <route-files value="input_routes.rou.xml"/>
        <additional-files value="input_additional.add.xml"/>
    </input>

    <output>
        <tripinfo-output value="tripinfos.xml"/>
    </output>

    <time>
        <end value="300"/>
    </time>

    <report>
        <xml-validation value="never"/>
        <no-duration-log value="true"/>
        <no-step-log value="true"/>
    </report>

</configuration>
-->

<tripinfos xmlns:xsi="http://www.w3.org/2001/XMLSchema-instance" xsi:noNamespaceSchemaLocation="http://sumo.dlr.de/xsd/tripinfo_file.xsd">
    <tripinfo id="priority.0" depart="0.00" departLane="middle_0" departPos="800.00" departSpeed="26.11" departDelay="0.00" arrival="27.00" arrivalLane="end_0" arrivalPos="500.00" arrivalSpeed="26.11" duration="27.00" routeLength="700.00" waitSteps="0" timeLoss="0.00" rerouteNo="0" devices="tripinfo_priority.0" vType="tflow" vaporized=""/>
    <tripinfo id="priority.1" depart="2.00" departLane="middle_0" departPos="800.00" departSpeed="28.89" departDelay="-0.30" arrival="29.00" arrivalLane="end_0" arrivalPos="500.00" arrivalSpeed="31.35" duration="27.00" routeLength="700.00" waitSteps="0" timeLoss="6.06" rerouteNo="0" devices="tripinfo_priority.1" vType="tflow" vaporized=""/>
    <tripinfo id="priority.2" depart="4.00" departLane="middle_0" departPos="800.00" departSpeed="27.94" departDelay="-0.60" arrival="30.00" arrivalLane="end_0" arrivalPos="500.00" arrivalSpeed="27.94" duration="26.00" routeLength="700.00" waitSteps="0" timeLoss="0.31" rerouteNo="0" devices="tripinfo_priority.2" vType="tflow" vaporized=""/>
    <tripinfo id="priority.3" depart="6.00" departLane="middle_0" departPos="800.00" departSpeed="27.59" departDelay="-0.90" arrival="32.00" arrivalLane="end_0" arrivalPos="500.00" arrivalSpeed="27.59" duration="26.00" routeLength="700.00" waitSteps="0" timeLoss="0.00" rerouteNo="0" devices="tripinfo_priority.3" vType="tflow" vaporized=""/>
    <tripinfo id="priority.4" depart="9.00" departLane="middle_0" departPos="800.00" departSpeed="27.52" departDelay="-0.20" arrival="35.00" arrivalLane="end_0" arrivalPos="500.00" arrivalSpeed="27.52" duration="26.00" routeLength="700.00" waitSteps="0" timeLoss="0.00" rerouteNo="0" devices="tripinfo_priority.4" vType="tflow" vaporized=""/>
    <tripinfo id="ego" depart="0.00" departLane="right2end_0" departPos="390.00" departSpeed="0.00" departDelay="0.00" arrival="40.00" arrivalLane="end_0" arrivalPos="500.00" arrivalSpeed="27.80" duration="40.00" routeLength="610.00" waitSteps="5" timeLoss="13.94" rerouteNo="0" devices="tripinfo_ego" vType="t" vaporized=""/>
    <tripinfo id="priority.5" depart="11.00" departLane="middle_0" departPos="800.00" departSpeed="21.85" departDelay="-0.50" arrival="46.00" arrivalLane="end_0" arrivalPos="500.00" arrivalSpeed="21.85" duration="35.00" routeLength="700.00" waitSteps="0" timeLoss="2.01" rerouteNo="0" devices="tripinfo_priority.5" vType="tflow" vaporized=""/>
    <tripinfo id="priority.6" depart="13.00" departLane="middle_0" departPos="800.00" departSpeed="24.35" departDelay="-0.80" arrival="47.00" arrivalLane="end_0" arrivalPos="500.00" arrivalSpeed="24.45" duration="34.00" routeLength="700.00" waitSteps="0" timeLoss="7.61" rerouteNo="0" devices="tripinfo_priority.6" vType="tflow" vaporized=""/>
    <tripinfo id="priority.7" depart="16.00" departLane="middle_0" departPos="800.00" departSpeed="29.19" departDelay="-0.10" arrival="48.00" arrivalLane="end_0" arrivalPos="500.00" arrivalSpeed="24.46" duration="32.00" routeLength="700.00" waitSteps="0" timeLoss="7.72" rerouteNo="0" devices="tripinfo_priority.7" vType="tflow" vaporized=""/>
    <tripinfo id="priority.8" depart="18.00" departLane="middle_0" departPos="800.00" departSpeed="25.81" departDelay="-0.40" arrival="49.00" arrivalLane="end_0" arrivalPos="500.00" arrivalSpeed="24.48" duration="31.00" routeLength="700.00" waitSteps="0" timeLoss="3.84" rerouteNo="0" devices="tripinfo_priority.8" vType="tflow" vaporized=""/>
    <tripinfo id="priority.9" depart="20.00" departLane="middle_0" departPos="800.00" departSpeed="26.10" departDelay="-0.70" arrival="51.00" arrivalLane="end_0" arrivalPos="500.00" arrivalSpeed="26.10" duration="31.00" routeLength="700.00" waitSteps="0" timeLoss="3.43" rerouteNo="0" devices="tripinfo_priority.9" vType="tflow" vaporized=""/>
    <tripinfo id="priority.10" depart="23.00" departLane="middle_0" departPos="800.00" departSpeed="24.62" departDelay="0.00" arrival="52.00" arrivalLane="end_0" arrivalPos="500.00" arrivalSpeed="24.62" duration="29.00" routeLength="700.00" waitSteps="0" timeLoss="0.29" rerouteNo="0" devices="tripinfo_priority.10" vType="tflow" vaporized=""/>
    <tripinfo id="priority.11" depart="25.00" departLane="middle_0" departPos="800.00" departSpeed="27.40" departDelay="-0.30" arrival="53.00" arrivalLane="end_0" arrivalPos="500.00" arrivalSpeed="27.24" duration="28.00" routeLength="700.00" waitSteps="0" timeLoss="7.18" rerouteNo="0" devices="tripinfo_priority.11" vType="tflow" vaporized=""/>
    <tripinfo id="priority.12" depart="27.00" departLane="middle_0" departPos="800.00" departSpeed="18.54" departDelay="-0.60" arrival="65.00" arrivalLane="end_0" arrivalPos="500.00" arrivalSpeed="18.54" duration="38.00" routeLength="700.00" waitSteps="0" timeLoss="0.00" rerouteNo="0" devices="tripinfo_priority.12" vType="tflow" vaporized=""/>
    <tripinfo id="priority.13" depart="29.00" departLane="middle_0" departPos="800.00" departSpeed="20.75" departDelay="-0.90" arrival="67.00" arrivalLane="end_0" arrivalPos="500.00" arrivalSpeed="23.74" duration="38.00" routeLength="700.00" waitSteps="0" timeLoss="12.49" rerouteNo="0" devices="tripinfo_priority.13" vType="tflow" vaporized=""/>
    <tripinfo id="priority.14" depart="32.00" departLane="middle_0" departPos="800.00" departSpeed="25.97" departDelay="-0.20" arrival="68.00" arrivalLane="end_0" arrivalPos="500.00" arrivalSpeed="23.75" duration="36.00" routeLength="700.00" waitSteps="0" timeLoss="9.80" rerouteNo="0" devices="tripinfo_priority.14" vType="tflow" vaporized=""/>
    <tripinfo id="priority.15" depart="34.00" departLane="middle_0" departPos="800.00" departSpeed="27.70" departDelay="-0.50" arrival="69.00" arrivalLane="end_0" arrivalPos="500.00" arrivalSpeed="23.75" duration="35.00" routeLength="700.00" waitSteps="0" timeLoss="13.46" rerouteNo="0" devices="tripinfo_priority.15" vType="tflow" vaporized=""/>
    <tripinfo id="priority.16" depart="36.00" departLane="middle_0" departPos="800.00" departSpeed="29.28" departDelay="-0.80" arrival="70.00" arrivalLane="end_0" arrivalPos="500.00" arrivalSpeed="23.76" duration="34.00" routeLength="700.00" waitSteps="0" timeLoss="15.97" rerouteNo="0" devices="tripinfo_priority.16" vType="tflow" vaporized=""/>
    <tripinfo id="priority.17" depart="39.00" departLane="middle_0" departPos="800.00" departSpeed="23.67" departDelay="-0.10" arrival="72.00" arrivalLane="end_0" arrivalPos="500.00" arrivalSpeed="23.67" duration="33.00" routeLength="700.00" waitSteps="0" timeLoss="2.71" rerouteNo="0" devices="tripinfo_priority.17" vType="tflow" vaporized=""/>
    <tripinfo id="priority.18" depart="41.00" departLane="middle_0" departPos="800.00" departSpeed="26.36" departDelay="-0.40" arrival="73.00" arrivalLane="end_0" arrivalPos="500.00" arrivalSpeed="26.27" duration="32.00" routeLength="700.00" waitSteps="0" timeLoss="8.15" rerouteNo="0" devices="tripinfo_priority.18" vType="tflow" vaporized=""/>
    <tripinfo id="priority.19" depart="43.00" departLane="middle_0" departPos="800.00" departSpeed="28.76" departDelay="-0.70" arrival="74.00" arrivalLane="end_0" arrivalPos="500.00" arrivalSpeed="26.28" duration="31.00" routeLength="700.00" waitSteps="0" timeLoss="9.89" rerouteNo="0" devices="tripinfo_priority.19" vType="tflow" vaporized=""/>
    <tripinfo id="priority.20" depart="46.00" departLane="middle_0" departPos="800.00" departSpeed="28.53" departDelay="0.00" arrival="76.00" arrivalLane="end_0" arrivalPos="500.00" arrivalSpeed="28.53" duration="30.00" routeLength="700.00" waitSteps="0" timeLoss="4.58" rerouteNo="0" devices="tripinfo_priority.20" vType="tflow" vaporized=""/>
    <tripinfo id="priority.21" depart="48.00" departLane="middle_0" departPos="800.00" departSpeed="24.76" departDelay="-0.30" arrival="77.00" arrivalLane="end_0" arrivalPos="500.00" arrivalSpeed="24.76" duration="29.00" routeLength="700.00" waitSteps="0" timeLoss="0.50" rerouteNo="0" devices="tripinfo_priority.21" vType="tflow" vaporized=""/>
    <tripinfo id="priority.22" depart="50.00" departLane="middle_0" departPos="800.00" departSpeed="27.55" departDelay="-0.60" arrival="78.00" arrivalLane="end_0" arrivalPos="500.00" arrivalSpeed="27.39" duration="28.00" routeLength="700.00" waitSteps="0" timeLoss="4.12" rerouteNo="0" devices="tripinfo_priority.22" vType="tflow" vaporized=""/>
    <tripinfo id="priority.23" depart="52.00" departLane="middle_0" departPos="800.00" departSpeed="26.62" departDelay="-0.90" arrival="80.00" arrivalLane="end_0" arrivalPos="500.00" arrivalSpeed="26.62" duration="28.00" routeLength="700.00" waitSteps="0" timeLoss="1.01" rerouteNo="0" devices="tripinfo_priority.23" vType="tflow" vaporized=""/>
    <tripinfo id="priority.24" depart="55.00" departLane="middle_0" departPos="800.00" departSpeed="20.55" departDelay="-0.20" arrival="90.00" arrivalLane="end_0" arrivalPos="500.00" arrivalSpeed="20.55" duration="35.00" routeLength="700.00" waitSteps="0" timeLoss="0.00" rerouteNo="0" devices="tripinfo_priority.24" vType="tflow" vaporized=""/>
    <tripinfo id="priority.25" depart="57.00" departLane="middle_0" departPos="800.00" departSpeed="23.05" departDelay="-0.50" arrival="91.00" arrivalLane="end_0" arrivalPos="500.00" arrivalSpeed="23.15" duration="34.00" routeLength="700.00" waitSteps="0" timeLoss="13.94" rerouteNo="0" devices="tripinfo_priority.25" vType="tflow" vaporized=""/>
    <tripinfo id="priority.26" depart="59.00" departLane="middle_0" departPos="800.00" departSpeed="22.79" departDelay="-0.80" arrival="92.00" arrivalLane="end_0" arrivalPos="500.00" arrivalSpeed="22.79" duration="33.00" routeLength="700.00" waitSteps="0" timeLoss="2.00" rerouteNo="0" devices="tripinfo_priority.26" vType="tflow" vaporized=""/>
    <tripinfo id="priority.27" depart="62.00" departLane="middle_0" departPos="800.00" departSpeed="22.13" departDelay="-0.10" arrival="94.00" arrivalLane="end_0" arrivalPos="500.00" arrivalSpeed="22.13" duration="32.00" routeLength="700.00" waitSteps="0" timeLoss="0.00" rerouteNo="0" devices="tripinfo_priority.27" vType="tflow" vaporized=""/>
    <tripinfo id="priority.28" depart="64.00" departLane="middle_0" departPos="800.00" departSpeed="24.63" departDelay="-0.40" arrival="95.00" arrivalLane="end_0" arrivalPos="500.00" arrivalSpeed="24.73" duration="31.00" routeLength="700.00" waitSteps="0" timeLoss="8.33" rerouteNo="0" devices="tripinfo_priority.28" vType="tflow" vaporized=""/>
    <tripinfo id="priority.29" depart="66.00" departLane="middle_0" departPos="800.00" departSpeed="25.57" departDelay="-0.70" arrival="97.00" arrivalLane="end_0" arrivalPos="500.00" arrivalSpeed="25.57" duration="31.00" routeLength="700.00" waitSteps="0" timeLoss="2.79" rerouteNo="0" devices="tripinfo_priority.29" vType="tflow" vaporized=""/>
    <tripinfo id="priority.30" depart="69.00" departLane="middle_0" departPos="800.00" departSpeed="30.94" departDelay="0.00" arrival="98.00" arrivalLane="end_0" arrivalPos="500.00" arrivalSpeed="27.39" duration="29.00" routeLength="700.00" waitSteps="0" timeLoss="5.87" rerouteNo="0" devices="tripinfo_priority.30" vType="tflow" vaporized=""/>
    <tripinfo id="priority.31" depart="71.00" departLane="middle_0" departPos="800.00" departSpeed="23.50" departDelay="-0.30" arrival="101.00" arrivalLane="end_0" arrivalPos="500.00" arrivalSpeed="23.50" duration="30.00" routeLength="700.00" waitSteps="0" timeLoss="0.00" rerouteNo="0" devices="tripinfo_priority.31" vType="tflow" vaporized=""/>
    <tripinfo id="priority.32" depart="73.00" departLane="middle_0" departPos="800.00" departSpeed="26.16" departDelay="-0.60" arrival="102.00" arrivalLane="end_0" arrivalPos="500.00" arrivalSpeed="26.12" duration="29.00" routeLength="700.00" waitSteps="0" timeLoss="11.33" rerouteNo="0" devices="tripinfo_priority.32" vType="tflow" vaporized=""/>
    <tripinfo id="priority.33" depart="75.00" departLane="middle_0" departPos="800.00" departSpeed="28.57" departDelay="-0.90" arrival="104.00" arrivalLane="end_0" arrivalPos="500.00" arrivalSpeed="28.74" duration="29.00" routeLength="700.00" waitSteps="0" timeLoss="5.94" rerouteNo="0" devices="tripinfo_priority.33" vType="tflow" vaporized=""/>
    <tripinfo id="priority.34" depart="78.00" departLane="middle_0" departPos="800.00" departSpeed="25.24" departDelay="-0.20" arrival="106.00" arrivalLane="end_0" arrivalPos="500.00" arrivalSpeed="25.24" duration="28.00" routeLength="700.00" waitSteps="0" timeLoss="0.00" rerouteNo="0" devices="tripinfo_priority.34" vType="tflow" vaporized=""/>
    <tripinfo id="priority.35" depart="80.00" departLane="middle_0" departPos="800.00" departSpeed="25.65" departDelay="-0.50" arrival="108.00" arrivalLane="end_0" arrivalPos="500.00" arrivalSpeed="25.65" duration="28.00" routeLength="700.00" waitSteps="0" timeLoss="0.00" rerouteNo="0" devices="tripinfo_priority.35" vType="tflow" vaporized=""/>
    <tripinfo id="priority.36" depart="82.00" departLane="middle_0" departPos="800.00" departSpeed="28.43" departDelay="-0.80" arrival="109.00" arrivalLane="end_0" arrivalPos="500.00" arrivalSpeed="28.28" duration="27.00" routeLength="700.00" waitSteps="0" timeLoss="2.73" rerouteNo="0" devices="tripinfo_priority.36" vType="tflow" vaporized=""/>
    <tripinfo id="priority.37" depart="85.00" departLane="middle_0" departPos="800.00" departSpeed="29.31" departDelay="-0.10" arrival="110.00" arrivalLane="end_0" arrivalPos="500.00" arrivalSpeed="28.68" duration="25.00" routeLength="700.00" waitSteps="0" timeLoss="0.97" rerouteNo="0" devices="tripinfo_priority.37" vType="tflow" vaporized=""/>
    <tripinfo id="priority.38" depart="87.00" departLane="middle_0" departPos="800.00" departSpeed="22.49" departDelay="-0.40" arrival="119.00" arrivalLane="end_0" arrivalPos="500.00" arrivalSpeed="22.49" duration="32.00" routeLength="700.00" waitSteps="0" timeLoss="0.00" rerouteNo="0" devices="tripinfo_priority.38" vType="tflow" vaporized=""/>
    <tripinfo id="priority.39" depart="89.00" departLane="middle_0" departPos="800.00" departSpeed="24.99" departDelay="-0.70" arrival="120.00" arrivalLane="end_0" arrivalPos="500.00" arrivalSpeed="25.10" duration="31.00" routeLength="700.00" waitSteps="0" timeLoss="6.24" rerouteNo="0" devices="tripinfo_priority.39" vType="tflow" vaporized=""/>
    <tripinfo id="priority.40" depart="92.00" departLane="middle_0" departPos="800.00" departSpeed="20.38" departDelay="0.00" arrival="127.00" arrivalLane="end_0" arrivalPos="500.00" arrivalSpeed="20.38" duration="35.00" routeLength="700.00" waitSteps="0" timeLoss="0.00" rerouteNo="0" devices="tripinfo_priority.40" vType="tflow" vaporized=""/>
    <tripinfo id="priority.41" depart="94.00" departLane="middle_0" departPos="800.00" departSpeed="21.89" departDelay="-0.30" arrival="128.00" arrivalLane="end_0" arrivalPos="500.00" arrivalSpeed="21.89" duration="34.00" routeLength="700.00" waitSteps="0" timeLoss="1.67" rerouteNo="0" devices="tripinfo_priority.41" vType="tflow" vaporized=""/>
    <tripinfo id="priority.42" depart="96.00" departLane="middle_0" departPos="800.00" departSpeed="24.39" departDelay="-0.60" arrival="129.00" arrivalLane="end_0" arrivalPos="500.00" arrivalSpeed="22.98" duration="33.00" routeLength="700.00" waitSteps="0" timeLoss="10.26" rerouteNo="0" devices="tripinfo_priority.42" vType="tflow" vaporized=""/>
    <tripinfo id="priority.43" depart="98.00" departLane="middle_0" departPos="800.00" departSpeed="21.40" departDelay="-0.90" arrival="131.00" arrivalLane="end_0" arrivalPos="500.00" arrivalSpeed="21.40" duration="33.00" routeLength="700.00" waitSteps="0" timeLoss="0.00" rerouteNo="0" devices="tripinfo_priority.43" vType="tflow" vaporized=""/>
    <tripinfo id="priority.44" depart="101.00" departLane="middle_0" departPos="800.00" departSpeed="27.40" departDelay="-0.20" arrival="132.00" arrivalLane="end_0" arrivalPos="500.00" arrivalSpeed="24.02" duration="31.00" routeLength="700.00" waitSteps="0" timeLoss="9.76" rerouteNo="0" devices="tripinfo_priority.44" vType="tflow" vaporized=""/>
    <tripinfo id="priority.45" depart="103.00" departLane="middle_0" departPos="800.00" departSpeed="27.40" departDelay="-0.50" arrival="134.00" arrivalLane="end_0" arrivalPos="500.00" arrivalSpeed="26.63" duration="31.00" routeLength="700.00" waitSteps="0" timeLoss="4.70" rerouteNo="0" devices="tripinfo_priority.45" vType="tflow" vaporized=""/>
    <tripinfo id="priority.46" depart="105.00" departLane="middle_0" departPos="800.00" departSpeed="29.66" departDelay="-0.80" arrival="135.00" arrivalLane="end_0" arrivalPos="500.00" arrivalSpeed="26.64" duration="30.00" routeLength="700.00" waitSteps="0" timeLoss="5.95" rerouteNo="0" devices="tripinfo_priority.46" vType="tflow" vaporized=""/>
    <tripinfo id="priority.47" depart="108.00" departLane="middle_0" departPos="800.00" departSpeed="34.74" departDelay="-0.10" arrival="136.00" arrivalLane="end_0" arrivalPos="500.00" arrivalSpeed="26.70" duration="28.00" routeLength="700.00" waitSteps="0" timeLoss="7.69" rerouteNo="0" devices="tripinfo_priority.47" vType="tflow" vaporized=""/>
    <tripinfo id="priority.48" depart="110.00" departLane="middle_0" departPos="800.00" departSpeed="22.03" departDelay="-0.40" arrival="142.00" arrivalLane="end_0" arrivalPos="500.00" arrivalSpeed="22.03" duration="32.00" routeLength="700.00" waitSteps="0" timeLoss="0.00" rerouteNo="0" devices="tripinfo_priority.48" vType="tflow" vaporized=""/>
    <tripinfo id="priority.49" depart="112.00" departLane="middle_0" departPos="800.00" departSpeed="19.38" departDelay="-0.70" arrival="149.00" arrivalLane="end_0" arrivalPos="500.00" arrivalSpeed="19.38" duration="37.00" routeLength="700.00" waitSteps="0" timeLoss="0.00" rerouteNo="0" devices="tripinfo_priority.49" vType="tflow" vaporized=""/>
    <tripinfo id="priority.50" depart="115.00" departLane="middle_0" departPos="800.00" departSpeed="17.68" departDelay="0.00" arrival="155.00" arrivalLane="end_0" arrivalPos="500.00" arrivalSpeed="17.68" duration="40.00" routeLength="700.00" waitSteps="0" timeLoss="0.00" rerouteNo="0" devices="tripinfo_priority.50" vType="tflow" vaporized=""/>
    <tripinfo id="priority.51" depart="117.00" departLane="middle_0" departPos="800.00" departSpeed="19.78" departDelay="-0.30" arrival="156.00" arrivalLane="end_0" arrivalPos="500.00" arrivalSpeed="20.28" duration="39.00" routeLength="700.00" waitSteps="0" timeLoss="9.16" rerouteNo="0" devices="tripinfo_priority.51" vType="tflow" vaporized=""/>
    <tripinfo id="priority.52" depart="119.00" departLane="middle_0" departPos="800.00" departSpeed="21.81" departDelay="-0.60" arrival="158.00" arrivalLane="end_0" arrivalPos="500.00" arrivalSpeed="22.88" duration="39.00" routeLength="700.00" waitSteps="0" timeLoss="9.87" rerouteNo="0" devices="tripinfo_priority.52" vType="tflow" vaporized=""/>
    <tripinfo id="priority.53" depart="121.00" departLane="middle_0" departPos="800.00" departSpeed="23.62" departDelay="-0.90" arrival="159.00" arrivalLane="end_0" arrivalPos="500.00" arrivalSpeed="22.88" duration="38.00" routeLength="700.00" waitSteps="0" timeLoss="17.53" rerouteNo="0" devices="tripinfo_priority.53" vType="tflow" vaporized=""/>
    <tripinfo id="priority.54" depart="124.00" departLane="middle_0" departPos="800.00" departSpeed="24.52" departDelay="-0.20" arrival="160.00" arrivalLane="end_0" arrivalPos="500.00" arrivalSpeed="22.88" duration="36.00" routeLength="700.00" waitSteps="0" timeLoss="7.33" rerouteNo="0" devices="tripinfo_priority.54" vType="tflow" vaporized=""/>
    <tripinfo id="priority.55" depart="126.00" departLane="middle_0" departPos="800.00" departSpeed="25.91" departDelay="-0.50" arrival="162.00" arrivalLane="end_0" arrivalPos="500.00" arrivalSpeed="25.48" duration="36.00" routeLength="700.00" waitSteps="0" timeLoss="8.18" rerouteNo="0" devices="tripinfo_priority.55" vType="tflow" vaporized=""/>
    <tripinfo id="priority.56" depart="128.00" departLane="middle_0" departPos="800.00" departSpeed="28.70" departDelay="-0.80" arrival="163.00" arrivalLane="end_0" arrivalPos="500.00" arrivalSpeed="25.48" duration="35.00" routeLength="700.00" waitSteps="0" timeLoss="14.03" rerouteNo="0" devices="tripinfo_priority.56" vType="tflow" vaporized=""/>
    <tripinfo id="priority.57" depart="131.00" departLane="middle_0" departPos="800.00" departSpeed="33.35" departDelay="-0.10" arrival="164.00" arrivalLane="end_0" arrivalPos="500.00" arrivalSpeed="25.49" duration="33.00" routeLength="700.00" waitSteps="0" timeLoss="11.83" rerouteNo="0" devices="tripinfo_priority.57" vType="tflow" vaporized=""/>
    <tripinfo id="priority.58" depart="133.00" departLane="middle_0" departPos="800.00" departSpeed="19.85" departDelay="-0.40" arrival="169.00" arrivalLane="end_0" arrivalPos="500.00" arrivalSpeed="19.85" duration="36.00" routeLength="700.00" waitSteps="0" timeLoss="0.00" rerouteNo="0" devices="tripinfo_priority.58" vType="tflow" vaporized=""/>
    <tripinfo id="priority.59" depart="135.00" departLane="middle_0" departPos="800.00" departSpeed="22.32" departDelay="-0.70" arrival="170.00" arrivalLane="end_0" arrivalPos="500.00" arrivalSpeed="22.45" duration="35.00" routeLength="700.00" waitSteps="0" timeLoss="14.07" rerouteNo="0" devices="tripinfo_priority.59" vType="tflow" vaporized=""/>
    <tripinfo id="priority.60" depart="138.00" departLane="middle_0" departPos="800.00" departSpeed="25.30" departDelay="0.00" arrival="171.00" arrivalLane="end_0" arrivalPos="500.00" arrivalSpeed="22.46" duration="33.00" routeLength="700.00" waitSteps="0" timeLoss="5.24" rerouteNo="0" devices="tripinfo_priority.60" vType="tflow" vaporized=""/>
    <tripinfo id="priority.61" depart="140.00" departLane="middle_0" departPos="800.00" departSpeed="28.08" departDelay="-0.30" arrival="173.00" arrivalLane="end_0" arrivalPos="500.00" arrivalSpeed="25.06" duration="33.00" routeLength="700.00" waitSteps="0" timeLoss="13.26" rerouteNo="0" devices="tripinfo_priority.61" vType="tflow" vaporized=""/>
    <tripinfo id="priority.62" depart="142.00" departLane="middle_0" departPos="800.00" departSpeed="30.45" departDelay="-0.60" arrival="174.00" arrivalLane="end_0" arrivalPos="500.00" arrivalSpeed="25.07" duration="32.00" routeLength="700.00" waitSteps="0" timeLoss="8.60" rerouteNo="0" devices="tripinfo_priority.62" vType="tflow" vaporized=""/>
    <tripinfo id="priority.63" depart="144.00" departLane="middle_0" departPos="800.00" departSpeed="25.15" departDelay="-0.90" arrival="175.00" arrivalLane="end_0" arrivalPos="500.00" arrivalSpeed="25.13" duration="31.00" routeLength="700.00" waitSteps="0" timeLoss="2.99" rerouteNo="0" devices="tripinfo_priority.63" vType="tflow" vaporized=""/>
    <tripinfo id="priority.64" depart="147.00" departLane="middle_0" departPos="800.00" departSpeed="22.80" departDelay="-0.20" arrival="178.00" arrivalLane="end_0" arrivalPos="500.00" arrivalSpeed="22.80" duration="31.00" routeLength="700.00" waitSteps="0" timeLoss="0.00" rerouteNo="0" devices="tripinfo_priority.64" vType="tflow" vaporized=""/>
    <tripinfo id="priority.65" depart="149.00" departLane="middle_0" departPos="800.00" departSpeed="24.54" departDelay="-0.50" arrival="179.00" arrivalLane="end_0" arrivalPos="500.00" arrivalSpeed="24.54" duration="30.00" routeLength="700.00" waitSteps="0" timeLoss="1.43" rerouteNo="0" devices="tripinfo_priority.65" vType="tflow" vaporized=""/>
    <tripinfo id="priority.66" depart="151.00" departLane="middle_0" departPos="800.00" departSpeed="20.78" departDelay="-0.80" arrival="185.00" arrivalLane="end_0" arrivalPos="500.00" arrivalSpeed="20.78" duration="34.00" routeLength="700.00" waitSteps="0" timeLoss="0.00" rerouteNo="0" devices="tripinfo_priority.66" vType="tflow" vaporized=""/>
    <tripinfo id="priority.67" depart="154.00" departLane="middle_0" departPos="800.00" departSpeed="26.75" departDelay="-0.10" arrival="186.00" arrivalLane="end_0" arrivalPos="500.00" arrivalSpeed="23.39" duration="32.00" routeLength="700.00" waitSteps="0" timeLoss="11.10" rerouteNo="0" devices="tripinfo_priority.67" vType="tflow" vaporized=""/>
    <tripinfo id="priority.68" depart="156.00" departLane="middle_0" departPos="800.00" departSpeed="20.88" departDelay="-0.40" arrival="190.00" arrivalLane="end_0" arrivalPos="500.00" arrivalSpeed="20.88" duration="34.00" routeLength="700.00" waitSteps="0" timeLoss="0.00" rerouteNo="0" devices="tripinfo_priority.68" vType="tflow" vaporized=""/>
    <tripinfo id="priority.69" depart="158.00" departLane="middle_0" departPos="800.00" departSpeed="23.38" departDelay="-0.70" arrival="191.00" arrivalLane="end_0" arrivalPos="500.00" arrivalSpeed="23.48" duration="33.00" routeLength="700.00" waitSteps="0" timeLoss="14.19" rerouteNo="0" devices="tripinfo_priority.69" vType="tflow" vaporized=""/>
    <tripinfo id="priority.70" depart="161.00" departLane="middle_0" departPos="800.00" departSpeed="28.79" departDelay="0.00" arrival="193.00" arrivalLane="end_0" arrivalPos="500.00" arrivalSpeed="26.09" duration="32.00" routeLength="700.00" waitSteps="0" timeLoss="11.19" rerouteNo="0" devices="tripinfo_priority.70" vType="tflow" vaporized=""/>
    <tripinfo id="priority.71" depart="163.00" departLane="middle_0" departPos="800.00" departSpeed="30.70" departDelay="-0.30" arrival="194.00" arrivalLane="end_0" arrivalPos="500.00" arrivalSpeed="26.10" duration="31.00" routeLength="700.00" waitSteps="0" timeLoss="12.59" rerouteNo="0" devices="tripinfo_priority.71" vType="tflow" vaporized=""/>
    <tripinfo id="priority.72" depart="165.00" departLane="middle_0" departPos="800.00" departSpeed="32.47" departDelay="-0.60" arrival="195.00" arrivalLane="end_0" arrivalPos="500.00" arrivalSpeed="26.12" duration="30.00" routeLength="700.00" waitSteps="0" timeLoss="8.55" rerouteNo="0" devices="tripinfo_priority.72" vType="tflow" vaporized=""/>
    <tripinfo id="priority.73" depart="167.00" departLane="middle_0" departPos="800.00" departSpeed="25.89" departDelay="-0.90" arrival="197.00" arrivalLane="end_0" arrivalPos="500.00" arrivalSpeed="25.89" duration="30.00" routeLength="700.00" waitSteps="0" timeLoss="1.97" rerouteNo="0" devices="tripinfo_priority.73" vType="tflow" vaporized=""/>
    <tripinfo id="priority.74" depart="170.00" departLane="middle_0" departPos="800.00" departSpeed="18.03" departDelay="-0.20" arrival="209.00" arrivalLane="end_0" arrivalPos="500.00" arrivalSpeed="18.03" duration="39.00" routeLength="700.00" waitSteps="0" timeLoss="0.00" rerouteNo="0" devices="tripinfo_priority.74" vType="tflow" vaporized=""/>
    <tripinfo id="priority.75" depart="172.00" departLane="middle_0" departPos="800.00" departSpeed="20.13" departDelay="-0.50" arrival="211.00" arrivalLane="end_0" arrivalPos="500.00" arrivalSpeed="23.23" duration="39.00" routeLength="700.00" waitSteps="0" timeLoss="17.03" rerouteNo="0" devices="tripinfo_priority.75" vType="tflow" vaporized=""/>
    <tripinfo id="priority.76" depart="174.00" departLane="middle_0" departPos="800.00" departSpeed="22.24" departDelay="-0.80" arrival="212.00" arrivalLane="end_0" arrivalPos="500.00" arrivalSpeed="23.23" duration="38.00" routeLength="700.00" waitSteps="0" timeLoss="17.53" rerouteNo="0" devices="tripinfo_priority.76" vType="tflow" vaporized=""/>
    <tripinfo id="priority.77" depart="177.00" departLane="middle_0" departPos="800.00" departSpeed="26.95" departDelay="-0.10" arrival="213.00" arrivalLane="end_0" arrivalPos="500.00" arrivalSpeed="23.23" duration="36.00" routeLength="700.00" waitSteps="0" timeLoss="9.77" rerouteNo="0" devices="tripinfo_priority.77" vType="tflow" vaporized=""/>
    <tripinfo id="priority.78" depart="179.00" departLane="middle_0" departPos="800.00" departSpeed="17.44" departDelay="-0.40" arrival="220.00" arrivalLane="end_0" arrivalPos="500.00" arrivalSpeed="17.44" duration="41.00" routeLength="700.00" waitSteps="0" timeLoss="0.00" rerouteNo="0" devices="tripinfo_priority.78" vType="tflow" vaporized=""/>
    <tripinfo id="priority.79" depart="181.00" departLane="middle_0" departPos="800.00" departSpeed="19.54" departDelay="-0.70" arrival="221.00" arrivalLane="end_0" arrivalPos="500.00" arrivalSpeed="20.04" duration="40.00" routeLength="700.00" waitSteps="0" timeLoss="15.85" rerouteNo="0" devices="tripinfo_priority.79" vType="tflow" vaporized=""/>
    <tripinfo id="priority.80" depart="184.00" departLane="middle_0" departPos="800.00" departSpeed="19.73" departDelay="0.00" arrival="222.00" arrivalLane="end_0" arrivalPos="500.00" arrivalSpeed="19.73" duration="38.00" routeLength="700.00" waitSteps="0" timeLoss="2.39" rerouteNo="0" devices="tripinfo_priority.80" vType="tflow" vaporized=""/>
    <tripinfo id="priority.81" depart="186.00" departLane="middle_0" departPos="800.00" departSpeed="9.04" departDelay="-0.30" arrival="264.00" arrivalLane="end_0" arrivalPos="500.00" arrivalSpeed="9.04" duration="78.00" routeLength="700.00" waitSteps="0" timeLoss="0.00" rerouteNo="0" devices="tripinfo_priority.81" vType="tflow" vaporized=""/>