<?xml version="1.0" encoding="UTF-8"?>

<!-- generated on Sat Jul 27 10:54:31 2019 by Eclipse SUMO Version v1_2_0+1308-8d07168154
This data file and the accompanying materials
are made available under the terms of the Eclipse Public License v2.0
which accompanies this distribution, and is available at
http://www.eclipse.org/legal/epl-v20.html
SPDX-License-Identifier: EPL-2.0
<configuration xmlns:xsi="http://www.w3.org/2001/XMLSchema-instance" xsi:noNamespaceSchemaLocation="http://sumo.dlr.de/xsd/sumoConfiguration.xsd">

    <input>
        <net-file value="net.net.xml"/>
        <route-files value="input_routes.rou.xml"/>
        <additional-files value="input_additional.add.xml"/>
    </input>

    <output>
        <write-license value="true"/>
        <tripinfo-output value="tripinfos.xml"/>
    </output>

    <processing>
        <default.speeddev value="0"/>
        <modelparkingmanoeuver value="true"/>
    </processing>

    <report>
        <xml-validation value="never"/>
        <duration-log.disable value="true"/>
        <no-step-log value="true"/>
    </report>

</configuration>
-->

<tripinfos xmlns:xsi="http://www.w3.org/2001/XMLSchema-instance" xsi:noNamespaceSchemaLocation="http://sumo.dlr.de/xsd/tripinfo_file.xsd">
    <tripinfo id="v.0" depart="0.00" departLane="a_0" departPos="5.10" departSpeed="0.00" departDelay="0.00" arrival="120.00" arrivalLane="c_0" arrivalPos="234.85" arrivalSpeed="13.89" duration="120.00" routeLength="842.56" waitingTime="23.00" waitingCount="2" stopTime="22.00" timeLoss="36.80" rerouteNo="1" devices="tripinfo_v.0" vType="DEFAULT_VEHTYPE" speedFactor="1.00" vaporized=""/>
    <tripinfo id="v.1" depart="2.00" departLane="a_0" departPos="5.10" departSpeed="0.00" departDelay="0.00" arrival="148.00" arrivalLane="c_0" arrivalPos="234.85" arrivalSpeed="13.89" duration="146.00" routeLength="842.56" waitingTime="41.00" waitingCount="3" stopTime="22.00" timeLoss="62.80" rerouteNo="1" devices="tripinfo_v.1" vType="DEFAULT_VEHTYPE" speedFactor="1.00" vaporized=""/>
    <tripinfo id="v.2" depart="5.00" departLane="a_0" departPos="5.10" departSpeed="0.00" departDelay="1.00" arrival="176.00" arrivalLane="c_0" arrivalPos="234.85" arrivalSpeed="13.89" duration="171.00" routeLength="842.56" waitingTime="63.00" waitingCount="4" stopTime="22.00" timeLoss="87.80" rerouteNo="1" devices="tripinfo_v.2" vType="DEFAULT_VEHTYPE" speedFactor="1.00" vaporized=""/>
    <tripinfo id="v.3" depart="7.00" departLane="a_0" departPos="5.10" departSpeed="0.00" departDelay="1.00" arrival="204.00" arrivalLane="c_0" arrivalPos="234.85" arrivalSpeed="13.89" duration="197.00" routeLength="842.56" waitingTime="81.00" waitingCount="6" stopTime="22.00" timeLoss="113.80" rerouteNo="1" devices="tripinfo_v.3" vType="DEFAULT_VEHTYPE" speedFactor="1.00" vaporized=""/>
</tripinfos>
