<?xml version="1.0" encoding="UTF-8"?>

<!-- generated on Mon Sep 16 20:58:08 2019 by Eclipse SUMO Version v1_3_1+0348-1784406169
This data file and the accompanying materials
are made available under the terms of the Eclipse Public License v2.0
which accompanies this distribution, and is available at
http://www.eclipse.org/legal/epl-v20.html
SPDX-License-Identifier: EPL-2.0
<configuration xmlns:xsi="http://www.w3.org/2001/XMLSchema-instance" xsi:noNamespaceSchemaLocation="http://sumo.dlr.de/xsd/sumoConfiguration.xsd">

    <input>
        <net-file value="net.net.xml"/>
        <additional-files value="input_districts.taz.xml,input_trips.trips.xml"/>
    </input>

    <output>
        <write-license value="true"/>
        <vehroute-output value="vehroutes.xml"/>
    </output>

    <time>
        <begin value="0"/>
    </time>

    <processing>
        <default.speeddev value="0"/>
        <pedestrian.model value="nonInteracting"/>
    </processing>

    <routing>
        <device.rerouting.with-taz value="true"/>
    </routing>

    <report>
        <xml-validation value="never"/>
        <duration-log.disable value="true"/>
        <no-step-log value="true"/>
    </report>

    <mesoscopic>
        <mesosim value="true"/>
    </mesoscopic>

</configuration>
-->

<routes xmlns:xsi="http://www.w3.org/2001/XMLSchema-instance" xsi:noNamespaceSchemaLocation="http://sumo.dlr.de/xsd/routes_file.xsd">
    <vehicle id="0" depart="0.00" fromTaz="1" toTaz="2" arrival="91.00">
        <route edges="beg2left left left2end end"/>
    </vehicle>

    <vehicle id="1" depart="20.00" fromTaz="1" toTaz="2" arrival="111.00">
        <route edges="beg2left left left2end end"/>
    </vehicle>

    <vehicle id="2" depart="40.00" fromTaz="1" toTaz="2" arrival="131.00">
        <route edges="beg2left left left2end end"/>
    </vehicle>

    <vehicle id="3" depart="60.00" fromTaz="1" toTaz="2" arrival="151.00">
        <route edges="beg2left left left2end end"/>
    </vehicle>

    <vehicle id="4" depart="80.00" fromTaz="1" toTaz="2" arrival="171.00">
        <route edges="beg2left left left2end end"/>
    </vehicle>

    <vehicle id="5" depart="100.00" fromTaz="1" toTaz="2" arrival="191.00">
        <route edges="beg2left left left2end end"/>
    </vehicle>

    <vehicle id="6" depart="120.00" fromTaz="1" toTaz="2" arrival="211.00">
        <route edges="beg2left left left2end end"/>
    </vehicle>

    <vehicle id="7" depart="140.00" fromTaz="1" toTaz="2" arrival="231.00">
        <route edges="beg2left left left2end end"/>
    </vehicle>

    <vehicle id="8" depart="160.00" fromTaz="1" toTaz="2" arrival="251.00">
        <route edges="beg2left left left2end end"/>
    </vehicle>

    <vehicle id="9" depart="180.00" fromTaz="1" toTaz="2" arrival="271.00">
        <route edges="beg2left left left2end end"/>
    </vehicle>

</routes>
