<?xml version="1.0"?>

<!-- generated on 03/18/10 13:43:12 by SUMO sumo Version dev-SVN-r8460
<configuration>

    <input>
        <net-file value="net.net.xml"/>
        <additional-files value="input_routes.rou.xml"/>
    </input>

    <output>
        <vehroute-output value="vehroutes.xml"/>
    </output>

    <time>
        <begin value="0"/>
    </time>

    <report>
        <no-duration-log value="true"/>
        <no-step-log value="true"/>
    </report>

    <routing>
        <device.routing.probability value="1"/>
    </routing>

</configuration>
-->

<routes>
    <vehicle id="0_0" depart="0" arrival="116.00">
        <routeDistribution>
            <route replacedOnEdge="absBeg" replacedAtTime="0.00" probability="0" edges="absBeg middle end absEnd"/>
            <route edges="absBeg beg2left left left2end end absEnd"/>
        </routeDistribution>
    </vehicle>

</routes>
