<?xml version="1.0"?>

<!-- generated on 01/23/12 11:23:26 by SUMO sumo Version dev-SVN-r11548
<?xml version="1.0" encoding="UTF-8"?>

<configuration xmlns:xsi="http://www.w3.org/2001/XMLSchema-instance" xsi:noNamespaceSchemaLocation="http://sumo.sf.net/xsd/sumoConfiguration.xsd">

    <input>
        <net-file value="net.net.xml"/>
        <additional-files value="input_routes.rou.xml"/>
    </input>

    <output>
        <vehroute-output value="vehroutes.xml"/>
    </output>

    <time>
        <begin value="0"/>
    </time>

    <report>
        <no-duration-log value="true"/>
        <no-step-log value="true"/>
    </report>

    <routing>
        <device.rerouting.probability value="1"/>
    </routing>

    <mesoscopic>
        <mesosim value="true"/>
    </mesoscopic>

</configuration>
-->

<routes>
    <vehicle id="0_0" type="0" depart="0.00" arrival="126.00">
        <routeDistribution>
            <route replacedOnEdge="" replacedAtTime="0.00" probability="0" edges="absBeg middle end absEnd"/>
            <route edges="absBeg beg2left left left2end end absEnd"/>
        </routeDistribution>
    </vehicle>

</routes>
