<?xml version="1.0" encoding="UTF-8"?>

<!-- generated on Fri May 29 12:18:53 2020 by Eclipse SUMO Version v1_6_0+0448-9de36b110b
This data file and the accompanying materials
are made available under the terms of the Eclipse Public License v2.0
which accompanies this distribution, and is available at
http://www.eclipse.org/legal/epl-v20.html
SPDX-License-Identifier: EPL-2.0
<configuration xmlns:xsi="http://www.w3.org/2001/XMLSchema-instance" xsi:noNamespaceSchemaLocation="http://sumo.dlr.de/xsd/sumoConfiguration.xsd">

    <input>
        <net-file value="net.net.xml"/>
        <route-files value="input_routes2.rou.xml"/>
        <additional-files value="input_additional.add.xml"/>
    </input>

    <output>
        <write-license value="true"/>
        <vehroute-output value="vehroutes.xml"/>
    </output>

    <time>
        <begin value="800"/>
    </time>

    <processing>
        <ignore-route-errors value="true"/>
        <default.speeddev value="0"/>
    </processing>

    <report>
        <xml-validation value="never"/>
        <no-step-log value="true"/>
    </report>

</configuration>
-->

<routes xmlns:xsi="http://www.w3.org/2001/XMLSchema-instance" xsi:noNamespaceSchemaLocation="http://sumo.dlr.de/xsd/routes_file.xsd">
    <vehicle id="VehicleClosedAlready" depart="1000.00" arrival="1207.00">
        <routeDistribution>
            <route replacedOnEdge="beg2" reason="rr" replacedAtTime="1016.00" probability="0" edges="beg beg2 middle middle2 end end2"/>
            <route edges="beg beg2 left left2 end end2"/>
        </routeDistribution>
    </vehicle>

</routes>
