<?xml version="1.0" encoding="UTF-8"?>

<!-- generated on Tue Jun 16 23:31:30 2020 by Eclipse SUMO Version v1_6_0+0773-161b41ac74
This data file and the accompanying materials
are made available under the terms of the Eclipse Public License v2.0
which accompanies this distribution, and is available at
http://www.eclipse.org/legal/epl-v20.html
SPDX-License-Identifier: EPL-2.0
<configuration xmlns:xsi="http://www.w3.org/2001/XMLSchema-instance" xsi:noNamespaceSchemaLocation="http://sumo.dlr.de/xsd/sumoConfiguration.xsd">

    <input>
        <net-file value="net.net.xml"/>
        <route-files value="input_routes.rou.xml"/>
    </input>

    <output>
        <write-license value="true"/>
        <fcd-output value="fcd.xml"/>
        <tripinfo-output value="tripinfos.xml"/>
        <lanechange-output value="lanechanges.xml"/>
        <lanechange-output.started value="true"/>
        <lanechange-output.ended value="true"/>
    </output>

    <processing>
        <lateral-resolution value="0.4"/>
        <default.speeddev value="0"/>
    </processing>

    <report>
        <xml-validation value="never"/>
        <no-step-log value="true"/>
    </report>

</configuration>
-->

<fcd-export xmlns:xsi="http://www.w3.org/2001/XMLSchema-instance" xsi:noNamespaceSchemaLocation="http://sumo.dlr.de/xsd/fcd_file.xsd">
    <timestep time="0.00">
        <vehicle id="A" x="0.10" y="-6.00" angle="90.00" type="t0" speed="13.89" pos="0.10" lane="beg_0" slope="0.00"/>
        <vehicle id="B" x="0.00" y="-2.00" angle="90.00" type="t1" speed="13.89" pos="0.00" lane="beg_1" slope="0.00"/>
    </timestep>
    <timestep time="1.00">
        <vehicle id="A" x="13.99" y="-6.00" angle="90.00" type="t0" speed="13.89" pos="13.99" lane="beg_0" slope="0.00"/>
        <vehicle id="B" x="13.89" y="-2.00" angle="90.00" type="t1" speed="13.89" pos="13.89" lane="beg_1" slope="0.00"/>
    </timestep>
    <timestep time="2.00">
        <vehicle id="A" x="27.88" y="-6.00" angle="90.00" type="t0" speed="13.89" pos="27.88" lane="beg_0" slope="0.00"/>
        <vehicle id="B" x="27.78" y="-2.00" angle="90.00" type="t1" speed="13.89" pos="27.78" lane="beg_1" slope="0.00"/>
    </timestep>
    <timestep time="3.00">
        <vehicle id="A" x="41.77" y="-6.00" angle="90.00" type="t0" speed="13.89" pos="41.77" lane="beg_0" slope="0.00"/>
        <vehicle id="B" x="41.67" y="-2.00" angle="90.00" type="t1" speed="13.89" pos="41.67" lane="beg_1" slope="0.00"/>
    </timestep>
    <timestep time="4.00">
        <vehicle id="A" x="55.66" y="-6.00" angle="90.00" type="t0" speed="13.89" pos="55.66" lane="beg_0" slope="0.00"/>
        <vehicle id="B" x="55.56" y="-2.00" angle="90.00" type="t1" speed="13.89" pos="55.56" lane="beg_1" slope="0.00"/>
    </timestep>
    <timestep time="5.00">
        <vehicle id="A" x="69.55" y="-6.00" angle="90.00" type="t0" speed="13.89" pos="69.55" lane="beg_0" slope="0.00"/>
        <vehicle id="B" x="69.45" y="-2.00" angle="90.00" type="t1" speed="13.89" pos="69.45" lane="beg_1" slope="0.00"/>
    </timestep>
    <timestep time="6.00">
        <vehicle id="A" x="83.44" y="-6.00" angle="90.00" type="t0" speed="13.89" pos="83.44" lane="beg_0" slope="0.00"/>
        <vehicle id="B" x="83.34" y="-2.00" angle="90.00" type="t1" speed="13.89" pos="83.34" lane="beg_1" slope="0.00"/>
    </timestep>
    <timestep time="7.00">
        <vehicle id="A" x="97.33" y="-6.00" angle="90.00" type="t0" speed="13.89" pos="97.33" lane="beg_0" slope="0.00"/>
        <vehicle id="B" x="97.23" y="-2.00" angle="90.00" type="t1" speed="13.89" pos="97.23" lane="beg_1" slope="0.00"/>
    </timestep>
    <timestep time="8.00">
        <vehicle id="A" x="111.22" y="-6.00" angle="90.00" type="t0" speed="13.89" pos="111.22" lane="beg_0" slope="0.00"/>
        <vehicle id="B" x="111.12" y="-2.00" angle="90.00" type="t1" speed="13.89" pos="111.12" lane="beg_1" slope="0.00"/>
    </timestep>
    <timestep time="9.00">
        <vehicle id="A" x="125.11" y="-6.00" angle="90.00" type="t0" speed="13.89" pos="125.11" lane="beg_0" slope="0.00"/>
        <vehicle id="B" x="125.01" y="-2.00" angle="90.00" type="t1" speed="13.89" pos="125.01" lane="beg_1" slope="0.00"/>
    </timestep>
    <timestep time="10.00">
        <vehicle id="A" x="139.00" y="-6.00" angle="90.00" type="t0" speed="13.89" pos="139.00" lane="beg_0" slope="0.00"/>
        <vehicle id="B" x="138.90" y="-2.00" angle="90.00" type="t1" speed="13.89" pos="138.90" lane="beg_1" slope="0.00"/>
    </timestep>
    <timestep time="11.00">
        <vehicle id="A" x="152.89" y="-6.00" angle="90.00" type="t0" speed="13.89" pos="152.89" lane="beg_0" slope="0.00"/>
        <vehicle id="B" x="152.79" y="-2.00" angle="90.00" type="t1" speed="13.89" pos="152.79" lane="beg_1" slope="0.00"/>
    </timestep>
    <timestep time="12.00">
        <vehicle id="A" x="166.78" y="-6.00" angle="90.00" type="t0" speed="13.89" pos="166.78" lane="beg_0" slope="0.00"/>
        <vehicle id="B" x="166.68" y="-2.00" angle="90.00" type="t1" speed="13.89" pos="166.68" lane="beg_1" slope="0.00"/>
    </timestep>
    <timestep time="13.00">
        <vehicle id="A" x="180.67" y="-6.00" angle="90.00" type="t0" speed="13.89" pos="180.67" lane="beg_0" slope="0.00"/>
        <vehicle id="B" x="180.57" y="-2.00" angle="90.00" type="t1" speed="13.89" pos="180.57" lane="beg_1" slope="0.00"/>
    </timestep>
    <timestep time="14.00">
        <vehicle id="A" x="190.28" y="-6.00" angle="90.00" type="t0" speed="9.61" pos="190.28" lane="beg_0" slope="0.00"/>
        <vehicle id="B" x="194.46" y="-2.00" angle="90.00" type="t1" speed="13.89" pos="194.46" lane="beg_1" slope="0.00"/>
    </timestep>
    <timestep time="15.00">
        <vehicle id="A" x="195.39" y="-6.00" angle="90.00" type="t0" speed="5.11" pos="195.39" lane="beg_0" slope="0.00"/>
        <vehicle id="B" x="208.35" y="-2.00" angle="90.00" type="t1" speed="13.89" pos="4.35" lane="end_0" slope="0.00"/>
    </timestep>
    <timestep time="16.00">
        <vehicle id="A" x="196.00" y="-6.00" angle="90.00" type="t0" speed="0.61" pos="196.00" lane="beg_0" slope="0.00"/>
        <vehicle id="B" x="222.24" y="-2.00" angle="90.00" type="t1" speed="13.89" pos="18.24" lane="end_0" slope="0.00"/>
    </timestep>
    <timestep time="17.00">
        <vehicle id="A" x="196.00" y="-6.00" angle="90.00" type="t0" speed="0.00" pos="196.00" lane="beg_0" slope="0.00"/>
        <vehicle id="B" x="236.13" y="-2.00" angle="90.00" type="t1" speed="13.89" pos="32.13" lane="end_0" slope="0.00"/>
    </timestep>
    <timestep time="18.00">
        <vehicle id="A" x="196.00" y="-6.00" angle="90.00" type="t0" speed="0.00" pos="196.00" lane="beg_0" slope="0.00"/>
        <vehicle id="B" x="250.02" y="-2.00" angle="90.00" type="t1" speed="13.89" pos="46.02" lane="end_0" slope="0.00"/>
    </timestep>
    <timestep time="19.00">
        <vehicle id="A" x="196.00" y="-6.00" angle="90.00" type="t0" speed="0.00" pos="196.00" lane="beg_0" slope="0.00"/>
        <vehicle id="B" x="263.91" y="-2.00" angle="90.00" type="t1" speed="13.89" pos="59.91" lane="end_0" slope="0.00"/>
    </timestep>
    <timestep time="20.00">
        <vehicle id="A" x="196.00" y="-6.00" angle="90.00" type="t0" speed="0.00" pos="196.00" lane="beg_0" slope="0.00"/>
        <vehicle id="B" x="277.80" y="-2.00" angle="90.00" type="t1" speed="13.89" pos="73.80" lane="end_0" slope="0.00"/>
    </timestep>
    <timestep time="21.00">
        <vehicle id="A" x="196.00" y="-6.00" angle="90.00" type="t0" speed="0.00" pos="196.00" lane="beg_0" slope="0.00"/>
        <vehicle id="B" x="291.69" y="-2.00" angle="90.00" type="t1" speed="13.89" pos="87.69" lane="end_0" slope="0.00"/>
    </timestep>
    <timestep time="22.00">
        <vehicle id="A" x="196.00" y="-6.00" angle="90.00" type="t0" speed="0.00" pos="196.00" lane="beg_0" slope="0.00"/>
    </timestep>
    <timestep time="23.00">
        <vehicle id="A" x="196.00" y="-6.00" angle="90.00" type="t0" speed="0.00" pos="196.00" lane="beg_0" slope="0.00"/>
    </timestep>
    <timestep time="24.00">
        <vehicle id="A" x="196.00" y="-6.00" angle="90.00" type="t0" speed="0.00" pos="196.00" lane="beg_0" slope="0.00"/>
    </timestep>
    <timestep time="25.00">
        <vehicle id="A" x="196.00" y="-6.00" angle="90.00" type="t0" speed="0.00" pos="196.00" lane="beg_0" slope="0.00"/>
    </timestep>
    <timestep time="26.00">
        <vehicle id="A" x="196.00" y="-6.00" angle="90.00" type="t0" speed="0.00" pos="196.00" lane="beg_0" slope="0.00"/>
    </timestep>
    <timestep time="27.00">
        <vehicle id="A" x="196.00" y="-6.00" angle="90.00" type="t0" speed="0.00" pos="196.00" lane="beg_0" slope="0.00"/>
    </timestep>
    <timestep time="28.00">
        <vehicle id="A" x="196.00" y="-6.00" angle="90.00" type="t0" speed="0.00" pos="196.00" lane="beg_0" slope="0.00"/>
    </timestep>
    <timestep time="29.00">
        <vehicle id="A" x="196.00" y="-6.00" angle="90.00" type="t0" speed="0.00" pos="196.00" lane="beg_0" slope="0.00"/>
    </timestep>
    <timestep time="30.00">
        <vehicle id="A" x="196.00" y="-6.00" angle="90.00" type="t0" speed="0.00" pos="196.00" lane="beg_0" slope="0.00"/>
    </timestep>
    <timestep time="31.00">
        <vehicle id="A" x="196.00" y="-6.00" angle="90.00" type="t0" speed="0.00" pos="196.00" lane="beg_0" slope="0.00"/>
    </timestep>
    <timestep time="32.00">
        <vehicle id="A" x="196.00" y="-6.00" angle="90.00" type="t0" speed="0.00" pos="196.00" lane="beg_0" slope="0.00"/>
    </timestep>
    <timestep time="33.00">
        <vehicle id="A" x="196.00" y="-6.00" angle="90.00" type="t0" speed="0.00" pos="196.00" lane="beg_0" slope="0.00"/>
    </timestep>
    <timestep time="34.00">
        <vehicle id="A" x="196.00" y="-6.00" angle="90.00" type="t0" speed="0.00" pos="196.00" lane="beg_0" slope="0.00"/>
    </timestep>
    <timestep time="35.00">
        <vehicle id="A" x="196.00" y="-6.00" angle="90.00" type="t0" speed="0.00" pos="196.00" lane="beg_0" slope="0.00"/>
    </timestep>
    <timestep time="36.00">
        <vehicle id="A" x="196.00" y="-6.00" angle="90.00" type="t0" speed="0.00" pos="196.00" lane="beg_0" slope="0.00"/>
    </timestep>
    <timestep time="37.00">
        <vehicle id="A" x="196.00" y="-6.00" angle="90.00" type="t0" speed="0.00" pos="196.00" lane="beg_0" slope="0.00"/>
    </timestep>
    <timestep time="38.00">
        <vehicle id="A" x="196.00" y="-6.00" angle="90.00" type="t0" speed="0.00" pos="196.00" lane="beg_0" slope="0.00"/>
    </timestep>
    <timestep time="39.00">
        <vehicle id="A" x="196.00" y="-6.00" angle="90.00" type="t0" speed="0.00" pos="196.00" lane="beg_0" slope="0.00"/>
    </timestep>
    <timestep time="40.00">
        <vehicle id="A" x="196.00" y="-6.00" angle="90.00" type="t0" speed="0.00" pos="196.00" lane="beg_0" slope="0.00"/>
    </timestep>
    <timestep time="41.00">
        <vehicle id="A" x="196.00" y="-6.00" angle="90.00" type="t0" speed="0.00" pos="196.00" lane="beg_0" slope="0.00"/>
    </timestep>
    <timestep time="42.00">
        <vehicle id="A" x="196.00" y="-6.00" angle="90.00" type="t0" speed="0.00" pos="196.00" lane="beg_0" slope="0.00"/>
    </timestep>
    <timestep time="43.00">
        <vehicle id="A" x="196.00" y="-6.00" angle="90.00" type="t0" speed="0.00" pos="196.00" lane="beg_0" slope="0.00"/>
    </timestep>
    <timestep time="44.00">
        <vehicle id="A" x="196.00" y="-6.00" angle="90.00" type="t0" speed="0.00" pos="196.00" lane="beg_0" slope="0.00"/>
    </timestep>
    <timestep time="45.00">
        <vehicle id="A" x="196.00" y="-6.00" angle="90.00" type="t0" speed="0.00" pos="196.00" lane="beg_0" slope="0.00"/>
    </timestep>
    <timestep time="46.00">
        <vehicle id="A" x="196.00" y="-6.00" angle="90.00" type="t0" speed="0.00" pos="196.00" lane="beg_0" slope="0.00"/>
    </timestep>
    <timestep time="47.00">
        <vehicle id="A" x="196.00" y="-6.00" angle="90.00" type="t0" speed="0.00" pos="196.00" lane="beg_0" slope="0.00"/>
    </timestep>
    <timestep time="48.00">
        <vehicle id="A" x="196.00" y="-6.00" angle="90.00" type="t0" speed="0.00" pos="196.00" lane="beg_0" slope="0.00"/>
    </timestep>
    <timestep time="49.00">
        <vehicle id="A" x="196.00" y="-6.00" angle="90.00" type="t0" speed="0.00" pos="196.00" lane="beg_0" slope="0.00"/>
    </timestep>
    <timestep time="50.00">
        <vehicle id="A" x="196.00" y="-6.00" angle="90.00" type="t0" speed="0.00" pos="196.00" lane="beg_0" slope="0.00"/>
    </timestep>
    <timestep time="51.00">
        <vehicle id="A" x="196.00" y="-6.00" angle="90.00" type="t0" speed="0.00" pos="196.00" lane="beg_0" slope="0.00"/>
    </timestep>
    <timestep time="52.00">
        <vehicle id="A" x="196.00" y="-6.00" angle="90.00" type="t0" speed="0.00" pos="196.00" lane="beg_0" slope="0.00"/>
    </timestep>
    <timestep time="53.00">
        <vehicle id="A" x="196.00" y="-6.00" angle="90.00" type="t0" speed="0.00" pos="196.00" lane="beg_0" slope="0.00"/>
    </timestep>
    <timestep time="54.00">
        <vehicle id="A" x="196.00" y="-6.00" angle="90.00" type="t0" speed="0.00" pos="196.00" lane="beg_0" slope="0.00"/>
    </timestep>
    <timestep time="55.00">
        <vehicle id="A" x="196.00" y="-6.00" angle="90.00" type="t0" speed="0.00" pos="196.00" lane="beg_0" slope="0.00"/>
    </timestep>
    <timestep time="56.00">
        <vehicle id="A" x="196.00" y="-6.00" angle="90.00" type="t0" speed="0.00" pos="196.00" lane="beg_0" slope="0.00"/>
    </timestep>
    <timestep time="57.00">
        <vehicle id="A" x="196.00" y="-6.00" angle="90.00" type="t0" speed="0.00" pos="196.00" lane="beg_0" slope="0.00"/>
    </timestep>
    <timestep time="58.00">
        <vehicle id="A" x="196.00" y="-6.00" angle="90.00" type="t0" speed="0.00" pos="196.00" lane="beg_0" slope="0.00"/>
    </timestep>
    <timestep time="59.00">
        <vehicle id="A" x="196.00" y="-6.00" angle="90.00" type="t0" speed="0.00" pos="196.00" lane="beg_0" slope="0.00"/>
    </timestep>
    <timestep time="60.00">
        <vehicle id="A" x="196.00" y="-6.00" angle="90.00" type="t0" speed="0.00" pos="196.00" lane="beg_0" slope="0.00"/>
    </timestep>
    <timestep time="61.00">
        <vehicle id="A" x="196.00" y="-6.00" angle="90.00" type="t0" speed="0.00" pos="196.00" lane="beg_0" slope="0.00"/>
    </timestep>
    <timestep time="62.00">
        <vehicle id="A" x="196.00" y="-6.00" angle="90.00" type="t0" speed="0.00" pos="196.00" lane="beg_0" slope="0.00"/>
    </timestep>
    <timestep time="63.00">
        <vehicle id="A" x="196.00" y="-6.00" angle="90.00" type="t0" speed="0.00" pos="196.00" lane="beg_0" slope="0.00"/>
    </timestep>
    <timestep time="64.00">
        <vehicle id="A" x="196.00" y="-6.00" angle="90.00" type="t0" speed="0.00" pos="196.00" lane="beg_0" slope="0.00"/>
    </timestep>
    <timestep time="65.00">
        <vehicle id="A" x="196.00" y="-6.00" angle="90.00" type="t0" speed="0.00" pos="196.00" lane="beg_0" slope="0.00"/>
    </timestep>
    <timestep time="66.00">
        <vehicle id="A" x="196.00" y="-6.00" angle="90.00" type="t0" speed="0.00" pos="196.00" lane="beg_0" slope="0.00"/>
    </timestep>
    <timestep time="67.00">
        <vehicle id="A" x="196.00" y="-6.00" angle="90.00" type="t0" speed="0.00" pos="196.00" lane="beg_0" slope="0.00"/>
    </timestep>
    <timestep time="68.00">
        <vehicle id="A" x="196.00" y="-6.00" angle="90.00" type="t0" speed="0.00" pos="196.00" lane="beg_0" slope="0.00"/>
    </timestep>
    <timestep time="69.00">
        <vehicle id="A" x="196.00" y="-6.00" angle="90.00" type="t0" speed="0.00" pos="196.00" lane="beg_0" slope="0.00"/>
    </timestep>
    <timestep time="70.00">
        <vehicle id="A" x="196.00" y="-6.00" angle="90.00" type="t0" speed="0.00" pos="196.00" lane="beg_0" slope="0.00"/>
    </timestep>
    <timestep time="71.00">
        <vehicle id="A" x="196.00" y="-6.00" angle="90.00" type="t0" speed="0.00" pos="196.00" lane="beg_0" slope="0.00"/>
    </timestep>
    <timestep time="72.00">
        <vehicle id="A" x="196.00" y="-6.00" angle="90.00" type="t0" speed="0.00" pos="196.00" lane="beg_0" slope="0.00"/>
    </timestep>
    <timestep time="73.00">
        <vehicle id="A" x="196.00" y="-6.00" angle="90.00" type="t0" speed="0.00" pos="196.00" lane="beg_0" slope="0.00"/>
    </timestep>
    <timestep time="74.00">
        <vehicle id="A" x="196.00" y="-6.00" angle="90.00" type="t0" speed="0.00" pos="196.00" lane="beg_0" slope="0.00"/>
    </timestep>
    <timestep time="75.00">
        <vehicle id="A" x="196.00" y="-6.00" angle="90.00" type="t0" speed="0.00" pos="196.00" lane="beg_0" slope="0.00"/>
    </timestep>
    <timestep time="76.00">
        <vehicle id="A" x="196.00" y="-6.00" angle="90.00" type="t0" speed="0.00" pos="196.00" lane="beg_0" slope="0.00"/>
    </timestep>
    <timestep time="77.00">
        <vehicle id="A" x="196.00" y="-6.00" angle="90.00" type="t0" speed="0.00" pos="196.00" lane="beg_0" slope="0.00"/>
    </timestep>
    <timestep time="78.00">
        <vehicle id="A" x="196.00" y="-6.00" angle="90.00" type="t0" speed="0.00" pos="196.00" lane="beg_0" slope="0.00"/>
    </timestep>
    <timestep time="79.00">
        <vehicle id="A" x="196.00" y="-6.00" angle="90.00" type="t0" speed="0.00" pos="196.00" lane="beg_0" slope="0.00"/>
    </timestep>
    <timestep time="80.00">
        <vehicle id="A" x="196.00" y="-6.00" angle="90.00" type="t0" speed="0.00" pos="196.00" lane="beg_0" slope="0.00"/>
    </timestep>
    <timestep time="81.00">
        <vehicle id="A" x="196.00" y="-6.00" angle="90.00" type="t0" speed="0.00" pos="196.00" lane="beg_0" slope="0.00"/>
    </timestep>
    <timestep time="82.00">
        <vehicle id="A" x="196.00" y="-6.00" angle="90.00" type="t0" speed="0.00" pos="196.00" lane="beg_0" slope="0.00"/>
    </timestep>
    <timestep time="83.00">
        <vehicle id="A" x="196.00" y="-6.00" angle="90.00" type="t0" speed="0.00" pos="196.00" lane="beg_0" slope="0.00"/>
    </timestep>
    <timestep time="84.00">
        <vehicle id="A" x="196.00" y="-6.00" angle="90.00" type="t0" speed="0.00" pos="196.00" lane="beg_0" slope="0.00"/>
    </timestep>
    <timestep time="85.00">
        <vehicle id="A" x="196.00" y="-6.00" angle="90.00" type="t0" speed="0.00" pos="196.00" lane="beg_0" slope="0.00"/>
    </timestep>
    <timestep time="86.00">
        <vehicle id="A" x="196.00" y="-6.00" angle="90.00" type="t0" speed="0.00" pos="196.00" lane="beg_0" slope="0.00"/>
    </timestep>
    <timestep time="87.00">
        <vehicle id="A" x="196.00" y="-6.00" angle="90.00" type="t0" speed="0.00" pos="196.00" lane="beg_0" slope="0.00"/>
    </timestep>
    <timestep time="88.00">
        <vehicle id="A" x="196.00" y="-6.00" angle="90.00" type="t0" speed="0.00" pos="196.00" lane="beg_0" slope="0.00"/>
    </timestep>
    <timestep time="89.00">
        <vehicle id="A" x="196.00" y="-6.00" angle="90.00" type="t0" speed="0.00" pos="196.00" lane="beg_0" slope="0.00"/>
    </timestep>
    <timestep time="90.00">
        <vehicle id="A" x="196.00" y="-6.00" angle="90.00" type="t0" speed="0.00" pos="196.00" lane="beg_0" slope="0.00"/>
    </timestep>
    <timestep time="91.00">
        <vehicle id="A" x="196.00" y="-6.00" angle="90.00" type="t0" speed="0.00" pos="196.00" lane="beg_0" slope="0.00"/>
    </timestep>
    <timestep time="92.00">
        <vehicle id="A" x="196.00" y="-6.00" angle="90.00" type="t0" speed="0.00" pos="196.00" lane="beg_0" slope="0.00"/>
    </timestep>
    <timestep time="93.00">
        <vehicle id="A" x="196.00" y="-6.00" angle="90.00" type="t0" speed="0.00" pos="196.00" lane="beg_0" slope="0.00"/>
    </timestep>
    <timestep time="94.00">
        <vehicle id="A" x="196.00" y="-6.00" angle="90.00" type="t0" speed="0.00" pos="196.00" lane="beg_0" slope="0.00"/>
    </timestep>
    <timestep time="95.00">
        <vehicle id="A" x="196.00" y="-6.00" angle="90.00" type="t0" speed="0.00" pos="196.00" lane="beg_0" slope="0.00"/>
    </timestep>
    <timestep time="96.00">
        <vehicle id="A" x="196.00" y="-6.00" angle="90.00" type="t0" speed="0.00" pos="196.00" lane="beg_0" slope="0.00"/>
    </timestep>
    <timestep time="97.00">
        <vehicle id="A" x="196.00" y="-6.00" angle="90.00" type="t0" speed="0.00" pos="196.00" lane="beg_0" slope="0.00"/>
    </timestep>
    <timestep time="98.00">
        <vehicle id="A" x="196.00" y="-6.00" angle="90.00" type="t0" speed="0.00" pos="196.00" lane="beg_0" slope="0.00"/>
    </timestep>
    <timestep time="99.00">
        <vehicle id="A" x="196.00" y="-6.00" angle="90.00" type="t0" speed="0.00" pos="196.00" lane="beg_0" slope="0.00"/>
    </timestep>
    <timestep time="100.00">
        <vehicle id="A" x="196.00" y="-6.00" angle="90.00" type="t0" speed="0.00" pos="196.00" lane="beg_0" slope="0.00"/>
    </timestep>
    <timestep time="101.00">
        <vehicle id="A" x="196.00" y="-6.00" angle="90.00" type="t0" speed="0.00" pos="196.00" lane="beg_0" slope="0.00"/>
    </timestep>
    <timestep time="102.00">
        <vehicle id="A" x="196.00" y="-6.00" angle="90.00" type="t0" speed="0.00" pos="196.00" lane="beg_0" slope="0.00"/>
    </timestep>
    <timestep time="103.00">
        <vehicle id="A" x="196.00" y="-6.00" angle="90.00" type="t0" speed="0.00" pos="196.00" lane="beg_0" slope="0.00"/>
    </timestep>
    <timestep time="104.00">
        <vehicle id="A" x="196.00" y="-6.00" angle="90.00" type="t0" speed="0.00" pos="196.00" lane="beg_0" slope="0.00"/>
    </timestep>
    <timestep time="105.00">
        <vehicle id="A" x="196.00" y="-6.00" angle="90.00" type="t0" speed="0.00" pos="196.00" lane="beg_0" slope="0.00"/>
    </timestep>
    <timestep time="106.00">
        <vehicle id="A" x="196.00" y="-6.00" angle="90.00" type="t0" speed="0.00" pos="196.00" lane="beg_0" slope="0.00"/>
    </timestep>
    <timestep time="107.00">
        <vehicle id="A" x="196.00" y="-6.00" angle="90.00" type="t0" speed="0.00" pos="196.00" lane="beg_0" slope="0.00"/>
    </timestep>
    <timestep time="108.00">
        <vehicle id="A" x="196.00" y="-6.00" angle="90.00" type="t0" speed="0.00" pos="196.00" lane="beg_0" slope="0.00"/>
    </timestep>
    <timestep time="109.00">
        <vehicle id="A" x="196.00" y="-6.00" angle="90.00" type="t0" speed="0.00" pos="196.00" lane="beg_0" slope="0.00"/>
    </timestep>
    <timestep time="110.00">
        <vehicle id="A" x="196.00" y="-6.00" angle="90.00" type="t0" speed="0.00" pos="196.00" lane="beg_0" slope="0.00"/>
    </timestep>
    <timestep time="111.00">
        <vehicle id="A" x="196.00" y="-6.00" angle="90.00" type="t0" speed="0.00" pos="196.00" lane="beg_0" slope="0.00"/>
    </timestep>
    <timestep time="112.00">
        <vehicle id="A" x="196.00" y="-6.00" angle="90.00" type="t0" speed="0.00" pos="196.00" lane="beg_0" slope="0.00"/>
    </timestep>
    <timestep time="113.00">
        <vehicle id="A" x="196.00" y="-6.00" angle="90.00" type="t0" speed="0.00" pos="196.00" lane="beg_0" slope="0.00"/>
    </timestep>
    <timestep time="114.00">
        <vehicle id="A" x="196.00" y="-6.00" angle="90.00" type="t0" speed="0.00" pos="196.00" lane="beg_0" slope="0.00"/>
    </timestep>
    <timestep time="115.00">
        <vehicle id="A" x="196.00" y="-6.00" angle="90.00" type="t0" speed="0.00" pos="196.00" lane="beg_0" slope="0.00"/>
    </timestep>
    <timestep time="116.00">
        <vehicle id="A" x="196.00" y="-6.00" angle="90.00" type="t0" speed="0.00" pos="196.00" lane="beg_0" slope="0.00"/>
    </timestep>
    <timestep time="117.00">
        <vehicle id="A" x="196.00" y="-6.00" angle="90.00" type="t0" speed="0.00" pos="196.00" lane="beg_0" slope="0.00"/>
    </timestep>
    <timestep time="118.00">
        <vehicle id="A" x="196.00" y="-6.00" angle="90.00" type="t0" speed="0.00" pos="196.00" lane="beg_0" slope="0.00"/>
    </timestep>
    <timestep time="119.00">
        <vehicle id="A" x="196.00" y="-6.00" angle="90.00" type="t0" speed="0.00" pos="196.00" lane="beg_0" slope="0.00"/>
    </timestep>
    <timestep time="120.00">
        <vehicle id="A" x="196.00" y="-6.00" angle="90.00" type="t0" speed="0.00" pos="196.00" lane="beg_0" slope="0.00"/>
    </timestep>
    <timestep time="121.00">
        <vehicle id="A" x="196.00" y="-6.00" angle="90.00" type="t0" speed="0.00" pos="196.00" lane="beg_0" slope="0.00"/>
    </timestep>
    <timestep time="122.00">
        <vehicle id="A" x="196.00" y="-6.00" angle="90.00" type="t0" speed="0.00" pos="196.00" lane="beg_0" slope="0.00"/>
    </timestep>
    <timestep time="123.00">
        <vehicle id="A" x="196.00" y="-6.00" angle="90.00" type="t0" speed="0.00" pos="196.00" lane="beg_0" slope="0.00"/>
    </timestep>
    <timestep time="124.00">
        <vehicle id="A" x="196.00" y="-6.00" angle="90.00" type="t0" speed="0.00" pos="196.00" lane="beg_0" slope="0.00"/>
    </timestep>
    <timestep time="125.00">
        <vehicle id="A" x="196.00" y="-6.00" angle="90.00" type="t0" speed="0.00" pos="196.00" lane="beg_0" slope="0.00"/>
    </timestep>
    <timestep time="126.00">
        <vehicle id="A" x="196.00" y="-6.00" angle="90.00" type="t0" speed="0.00" pos="196.00" lane="beg_0" slope="0.00"/>
    </timestep>
    <timestep time="127.00">
        <vehicle id="A" x="196.00" y="-6.00" angle="90.00" type="t0" speed="0.00" pos="196.00" lane="beg_0" slope="0.00"/>
    </timestep>
    <timestep time="128.00">
        <vehicle id="A" x="196.00" y="-6.00" angle="90.00" type="t0" speed="0.00" pos="196.00" lane="beg_0" slope="0.00"/>
    </timestep>
    <timestep time="129.00">
        <vehicle id="A" x="196.00" y="-6.00" angle="90.00" type="t0" speed="0.00" pos="196.00" lane="beg_0" slope="0.00"/>
    </timestep>
    <timestep time="130.00">
        <vehicle id="A" x="196.00" y="-6.00" angle="90.00" type="t0" speed="0.00" pos="196.00" lane="beg_0" slope="0.00"/>
    </timestep>
    <timestep time="131.00">
        <vehicle id="A" x="196.00" y="-6.00" angle="90.00" type="t0" speed="0.00" pos="196.00" lane="beg_0" slope="0.00"/>
    </timestep>
    <timestep time="132.00">
        <vehicle id="A" x="196.00" y="-6.00" angle="90.00" type="t0" speed="0.00" pos="196.00" lane="beg_0" slope="0.00"/>
    </timestep>
    <timestep time="133.00">
        <vehicle id="A" x="196.00" y="-6.00" angle="90.00" type="t0" speed="0.00" pos="196.00" lane="beg_0" slope="0.00"/>
    </timestep>
    <timestep time="134.00">
        <vehicle id="A" x="196.00" y="-6.00" angle="90.00" type="t0" speed="0.00" pos="196.00" lane="beg_0" slope="0.00"/>
    </timestep>
    <timestep time="135.00">
        <vehicle id="A" x="196.00" y="-6.00" angle="90.00" type="t0" speed="0.00" pos="196.00" lane="beg_0" slope="0.00"/>
    </timestep>
    <timestep time="136.00">
        <vehicle id="A" x="196.00" y="-6.00" angle="90.00" type="t0" speed="0.00" pos="196.00" lane="beg_0" slope="0.00"/>
    </timestep>
    <timestep time="137.00">
        <vehicle id="A" x="196.00" y="-6.00" angle="90.00" type="t0" speed="0.00" pos="196.00" lane="beg_0" slope="0.00"/>
    </timestep>
    <timestep time="138.00">
        <vehicle id="A" x="196.00" y="-6.00" angle="90.00" type="t0" speed="0.00" pos="196.00" lane="beg_0" slope="0.00"/>
    </timestep>
    <timestep time="139.00">
        <vehicle id="A" x="196.00" y="-6.00" angle="90.00" type="t0" speed="0.00" pos="196.00" lane="beg_0" slope="0.00"/>
    </timestep>
    <timestep time="140.00">
        <vehicle id="A" x="196.00" y="-6.00" angle="90.00" type="t0" speed="0.00" pos="196.00" lane="beg_0" slope="0.00"/>
    </timestep>
    <timestep time="141.00">
        <vehicle id="A" x="196.00" y="-6.00" angle="90.00" type="t0" speed="0.00" pos="196.00" lane="beg_0" slope="0.00"/>
    </timestep>
    <timestep time="142.00">
        <vehicle id="A" x="196.00" y="-6.00" angle="90.00" type="t0" speed="0.00" pos="196.00" lane="beg_0" slope="0.00"/>
    </timestep>
    <timestep time="143.00">
        <vehicle id="A" x="196.00" y="-6.00" angle="90.00" type="t0" speed="0.00" pos="196.00" lane="beg_0" slope="0.00"/>
    </timestep>
    <timestep time="144.00">
        <vehicle id="A" x="196.00" y="-6.00" angle="90.00" type="t0" speed="0.00" pos="196.00" lane="beg_0" slope="0.00"/>
    </timestep>
    <timestep time="145.00">
        <vehicle id="A" x="196.00" y="-6.00" angle="90.00" type="t0" speed="0.00" pos="196.00" lane="beg_0" slope="0.00"/>
    </timestep>
    <timestep time="146.00">
        <vehicle id="A" x="196.00" y="-6.00" angle="90.00" type="t0" speed="0.00" pos="196.00" lane="beg_0" slope="0.00"/>
    </timestep>
    <timestep time="147.00">
        <vehicle id="A" x="196.00" y="-6.00" angle="90.00" type="t0" speed="0.00" pos="196.00" lane="beg_0" slope="0.00"/>
    </timestep>
    <timestep time="148.00">
        <vehicle id="A" x="196.00" y="-6.00" angle="90.00" type="t0" speed="0.00" pos="196.00" lane="beg_0" slope="0.00"/>
    </timestep>
    <timestep time="149.00">
        <vehicle id="A" x="196.00" y="-6.00" angle="90.00" type="t0" speed="0.00" pos="196.00" lane="beg_0" slope="0.00"/>
    </timestep>
    <timestep time="150.00">
        <vehicle id="A" x="196.00" y="-6.00" angle="90.00" type="t0" speed="0.00" pos="196.00" lane="beg_0" slope="0.00"/>
    </timestep>
    <timestep time="151.00">
        <vehicle id="A" x="196.00" y="-6.00" angle="90.00" type="t0" speed="0.00" pos="196.00" lane="beg_0" slope="0.00"/>
    </timestep>
    <timestep time="152.00">
        <vehicle id="A" x="196.00" y="-6.00" angle="90.00" type="t0" speed="0.00" pos="196.00" lane="beg_0" slope="0.00"/>
    </timestep>
    <timestep time="153.00">
        <vehicle id="A" x="196.00" y="-6.00" angle="90.00" type="t0" speed="0.00" pos="196.00" lane="beg_0" slope="0.00"/>
    </timestep>
    <timestep time="154.00">
        <vehicle id="A" x="196.00" y="-6.00" angle="90.00" type="t0" speed="0.00" pos="196.00" lane="beg_0" slope="0.00"/>
    </timestep>
    <timestep time="155.00">