<?xml version="1.0"?>

<!-- generated on 07/07/11 07:10:42 by SUMO sumo Version dev-SVN-r10879
<?xml version="1.0" encoding="iso-8859-1"?>

<configuration xmlns:xsi="http://www.w3.org/2001/XMLSchema-instance" xsi:noNamespaceSchemaLocation="http://sumo.sf.net/xsd/sumoConfiguration.xsd">

    <input>
        <net-file value="three_split.net.xml"/>
        <additional-files value="input_routes.rou.xml"/>
    </input>

    <output>
        <tripinfo-output value="tripinfos.xml"/>
    </output>

    <time>
        <begin value="0"/>
    </time>

    <report>
        <no-duration-log value="true"/>
        <no-step-log value="true"/>
    </report>

    <emissions>
        <device.hbefa.probability value="0.5"/>
    </emissions>

</configuration>
-->

<tripinfos>
    <tripinfo id="0" depart="0.00" departLane="beg_0" departPos="5.10" departSpeed="13.89" departDelay="0.00" arrival="217.00" arrivalLane="rend_0" arrivalPos="2.10" arrivalSpeed="13.89" duration="217.00" routeLength="2978.20" waitSteps="0" rerouteNo="0" devices="tripinfo_0" vType="DEFAULT_VEHTYPE" vaporized=""/>
    <tripinfo id="1" depart="20.00" departLane="beg_0" departPos="5.10" departSpeed="13.89" departDelay="0.00" arrival="237.00" arrivalLane="rend_0" arrivalPos="2.10" arrivalSpeed="13.89" duration="217.00" routeLength="2978.20" waitSteps="0" rerouteNo="0" devices="tripinfo_1" vType="DEFAULT_VEHTYPE" vaporized=""/>
    <tripinfo id="2" depart="40.00" departLane="beg_0" departPos="5.10" departSpeed="13.89" departDelay="0.00" arrival="257.00" arrivalLane="rend_0" arrivalPos="2.10" arrivalSpeed="13.89" duration="217.00" routeLength="2978.20" waitSteps="0" rerouteNo="0" devices="tripinfo_2 hbefa_2" vType="DEFAULT_VEHTYPE" vaporized="">
        <emissions CO_abs="0.513258" CO2_abs="477.806128" HC_abs="0.080436" PMx_abs="0.033215" NOx_abs="0.820019" fuel_abs="0.190494"/>
    </tripinfo>
    <tripinfo id="3" depart="60.00" departLane="beg_0" departPos="5.10" departSpeed="13.89" departDelay="0.00" arrival="277.00" arrivalLane="rend_0" arrivalPos="2.10" arrivalSpeed="13.89" duration="217.00" routeLength="2978.20" waitSteps="0" rerouteNo="0" devices="tripinfo_3 hbefa_3" vType="DEFAULT_VEHTYPE" vaporized="">
        <emissions CO_abs="0.513258" CO2_abs="477.806128" HC_abs="0.080436" PMx_abs="0.033215" NOx_abs="0.820019" fuel_abs="0.190494"/>
    </tripinfo>
    <tripinfo id="4" depart="80.00" departLane="beg_0" departPos="5.10" departSpeed="13.89" departDelay="0.00" arrival="297.00" arrivalLane="rend_0" arrivalPos="2.10" arrivalSpeed="13.89" duration="217.00" routeLength="2978.20" waitSteps="0" rerouteNo="0" devices="tripinfo_4" vType="DEFAULT_VEHTYPE" vaporized=""/>
    <tripinfo id="5" depart="100.00" departLane="beg_0" departPos="5.10" departSpeed="13.89" departDelay="0.00" arrival="317.00" arrivalLane="rend_0" arrivalPos="2.10" arrivalSpeed="13.89" duration="217.00" routeLength="2978.20" waitSteps="0" rerouteNo="0" devices="tripinfo_5 hbefa_5" vType="DEFAULT_VEHTYPE" vaporized="">
        <emissions CO_abs="0.513258" CO2_abs="477.806128" HC_abs="0.080436" PMx_abs="0.033215" NOx_abs="0.820019" fuel_abs="0.190494"/>
    </tripinfo>
    <tripinfo id="6" depart="120.00" departLane="beg_0" departPos="5.10" departSpeed="13.89" departDelay="0.00" arrival="337.00" arrivalLane="rend_0" arrivalPos="2.10" arrivalSpeed="13.89" duration="217.00" routeLength="2978.20" waitSteps="0" rerouteNo="0" devices="tripinfo_6" vType="DEFAULT_VEHTYPE" vaporized=""/>
    <tripinfo id="7" depart="140.00" departLane="beg_0" departPos="5.10" departSpeed="13.89" departDelay="0.00" arrival="357.00" arrivalLane="rend_0" arrivalPos="2.10" arrivalSpeed="13.89" duration="217.00" routeLength="2978.20" waitSteps="0" rerouteNo="0" devices="tripinfo_7 hbefa_7" vType="DEFAULT_VEHTYPE" vaporized="">
        <emissions CO_abs="0.513258" CO2_abs="477.806128" HC_abs="0.080436" PMx_abs="0.033215" NOx_abs="0.820019" fuel_abs="0.190494"/>
    </tripinfo>
    <tripinfo id="8" depart="160.00" departLane="beg_0" departPos="5.10" departSpeed="13.89" departDelay="0.00" arrival="377.00" arrivalLane="rend_0" arrivalPos="2.10" arrivalSpeed="13.89" duration="217.00" routeLength="2978.20" waitSteps="0" rerouteNo="0" devices="tripinfo_8" vType="DEFAULT_VEHTYPE" vaporized=""/>
    <tripinfo id="9" depart="180.00" departLane="beg_0" departPos="5.10" departSpeed="13.89" departDelay="0.00" arrival="397.00" arrivalLane="rend_0" arrivalPos="2.10" arrivalSpeed="13.89" duration="217.00" routeLength="2978.20" waitSteps="0" rerouteNo="0" devices="tripinfo_9" vType="DEFAULT_VEHTYPE" vaporized=""/>
</tripinfos>
