<?xml version="1.0"?>

<!-- generated on 03/09/11 14:30:46 by SUMO sumo Version dev-SVN-r9885
<?xml version="1.0" encoding="iso-8859-1"?>

<configuration xmlns:xsi="http://www.w3.org/2001/XMLSchema-instance" xsi:noNamespaceSchemaLocation="http://sumo.sf.net/xsd/sumoConfiguration.xsd">

    <input>
        <net-file value="three_split.net.xml"/>
        <additional-files value="input_routes.rou.xml"/>
    </input>

    <output>
        <tripinfo-output value="tripinfos.xml"/>
    </output>

    <time>
        <begin value="0"/>
    </time>

    <report>
        <no-duration-log value="true"/>
        <no-step-log value="true"/>
    </report>

    <emissions>
        <device.hbefa.probability value="0.5"/>
    </emissions>

</configuration>
-->

<tripinfos>
    <tripinfo id="0" depart="0.00" departLane="beg_0" departPos="5.10" departSpeed="13.89" departDelay="0.00" arrival="219.00" arrivalLane="rend_0" arrivalPos="0.56" arrivalSpeed="13.89" duration="219.00" routeLength="2976.66" waitSteps="0" rerouteNo="0" devices="tripinfo_0" vtype="DEFAULT_VEHTYPE" vaporized=""/>
    <tripinfo id="1" depart="20.00" departLane="beg_0" departPos="5.10" departSpeed="13.89" departDelay="0.00" arrival="239.00" arrivalLane="rend_0" arrivalPos="0.56" arrivalSpeed="13.89" duration="219.00" routeLength="2976.66" waitSteps="0" rerouteNo="0" devices="tripinfo_1" vtype="DEFAULT_VEHTYPE" vaporized=""/>
    <tripinfo id="2" depart="40.00" departLane="beg_0" departPos="5.10" departSpeed="13.89" departDelay="0.00" arrival="259.00" arrivalLane="rend_0" arrivalPos="0.56" arrivalSpeed="13.89" duration="219.00" routeLength="2976.66" waitSteps="0" rerouteNo="0" devices="tripinfo_2 hbefa_2" vtype="DEFAULT_VEHTYPE" vaporized="">
        <emissions CO_abs="0.243470" CO2_abs="470.552261" HC_abs="0.077323" PMx_abs="0.030816" NOx_abs="0.796938" fuel_abs="0.187602"/>
    </tripinfo>
    <tripinfo id="3" depart="60.00" departLane="beg_0" departPos="5.10" departSpeed="13.89" departDelay="0.00" arrival="279.00" arrivalLane="rend_0" arrivalPos="0.56" arrivalSpeed="13.89" duration="219.00" routeLength="2976.66" waitSteps="0" rerouteNo="0" devices="tripinfo_3 hbefa_3" vtype="DEFAULT_VEHTYPE" vaporized="">
        <emissions CO_abs="0.243470" CO2_abs="470.552261" HC_abs="0.077323" PMx_abs="0.030816" NOx_abs="0.796938" fuel_abs="0.187602"/>
    </tripinfo>
    <tripinfo id="4" depart="80.00" departLane="beg_0" departPos="5.10" departSpeed="13.89" departDelay="0.00" arrival="299.00" arrivalLane="rend_0" arrivalPos="0.56" arrivalSpeed="13.89" duration="219.00" routeLength="2976.66" waitSteps="0" rerouteNo="0" devices="tripinfo_4" vtype="DEFAULT_VEHTYPE" vaporized=""/>
    <tripinfo id="5" depart="100.00" departLane="beg_0" departPos="5.10" departSpeed="13.89" departDelay="0.00" arrival="319.00" arrivalLane="rend_0" arrivalPos="0.56" arrivalSpeed="13.89" duration="219.00" routeLength="2976.66" waitSteps="0" rerouteNo="0" devices="tripinfo_5 hbefa_5" vtype="DEFAULT_VEHTYPE" vaporized="">
        <emissions CO_abs="0.243470" CO2_abs="470.552261" HC_abs="0.077323" PMx_abs="0.030816" NOx_abs="0.796938" fuel_abs="0.187602"/>
    </tripinfo>
    <tripinfo id="6" depart="120.00" departLane="beg_0" departPos="5.10" departSpeed="13.89" departDelay="0.00" arrival="339.00" arrivalLane="rend_0" arrivalPos="0.56" arrivalSpeed="13.89" duration="219.00" routeLength="2976.66" waitSteps="0" rerouteNo="0" devices="tripinfo_6" vtype="DEFAULT_VEHTYPE" vaporized=""/>
    <tripinfo id="7" depart="140.00" departLane="beg_0" departPos="5.10" departSpeed="13.89" departDelay="0.00" arrival="359.00" arrivalLane="rend_0" arrivalPos="0.56" arrivalSpeed="13.89" duration="219.00" routeLength="2976.66" waitSteps="0" rerouteNo="0" devices="tripinfo_7 hbefa_7" vtype="DEFAULT_VEHTYPE" vaporized="">
        <emissions CO_abs="0.243470" CO2_abs="470.552261" HC_abs="0.077323" PMx_abs="0.030816" NOx_abs="0.796938" fuel_abs="0.187602"/>
    </tripinfo>
    <tripinfo id="8" depart="160.00" departLane="beg_0" departPos="5.10" departSpeed="13.89" departDelay="0.00" arrival="379.00" arrivalLane="rend_0" arrivalPos="0.56" arrivalSpeed="13.89" duration="219.00" routeLength="2976.66" waitSteps="0" rerouteNo="0" devices="tripinfo_8" vtype="DEFAULT_VEHTYPE" vaporized=""/>
    <tripinfo id="9" depart="180.00" departLane="beg_0" departPos="5.10" departSpeed="13.89" departDelay="0.00" arrival="399.00" arrivalLane="rend_0" arrivalPos="0.56" arrivalSpeed="13.89" duration="219.00" routeLength="2976.66" waitSteps="0" rerouteNo="0" devices="tripinfo_9" vtype="DEFAULT_VEHTYPE" vaporized=""/>
</tripinfos>
