<?xml version="1.0" encoding="UTF-8"?>

<!-- generated on 2022-08-28 19:21:31 by Eclipse SUMO sumo Version v1_14_1+0598-02ca306
This data file and the accompanying materials
are made available under the terms of the Eclipse Public License v2.0
which accompanies this distribution, and is available at
http://www.eclipse.org/legal/epl-v20.html
This file may also be made available under the following Secondary
Licenses when the conditions for such availability set forth in the Eclipse
Public License 2.0 are satisfied: GNU General Public License, version 2
or later which is available at
https://www.gnu.org/licenses/old-licenses/gpl-2.0-standalone.html
SPDX-License-Identifier: EPL-2.0 OR GPL-2.0-or-later
<configuration xmlns:xsi="http://www.w3.org/2001/XMLSchema-instance" xsi:noNamespaceSchemaLocation="http://sumo.dlr.de/xsd/sumoConfiguration.xsd">

    <input>
        <net-file value="net3.net.xml"/>
        <additional-files value="input_routes.rou.xml"/>
    </input>

    <output>
        <write-license value="true"/>
        <tripinfo-output value="tripinfos.xml"/>
    </output>

    <processing>
        <default.speeddev value="0"/>
        <pedestrian.model value="nonInteracting"/>
    </processing>

    <report>
        <xml-validation value="never"/>
        <no-step-log value="true"/>
    </report>

</configuration>
-->

<tripinfos xmlns:xsi="http://www.w3.org/2001/XMLSchema-instance" xsi:noNamespaceSchemaLocation="http://sumo.dlr.de/xsd/tripinfo_file.xsd">
    <personinfo id="fwd1" depart="3.00" type="fwd1" speedFactor="1.00">
        <walk depart="3.00" departPos="0.00" arrival="62.00" arrivalPos="85.15" duration="59.00" routeLength="85.15" timeLoss="0.69" maxSpeed="1.46"/>
    </personinfo>
    <personinfo id="fwd4" depart="12.00" type="fwd4" speedFactor="1.00">
        <walk depart="12.00" departPos="0.00" arrival="70.00" arrivalPos="85.15" duration="58.00" routeLength="85.15" timeLoss="0.67" maxSpeed="1.49"/>
    </personinfo>
    <personinfo id="bwd1" depart="3.00" type="bwd1" speedFactor="1.00">
        <walk depart="3.00" departPos="85.15" arrival="71.00" arrivalPos="0.00" duration="68.00" routeLength="85.15" timeLoss="0.46" maxSpeed="1.26"/>
    </personinfo>
    <personinfo id="fwd0" depart="1.00" type="fwd0" speedFactor="1.00">
        <walk depart="1.00" departPos="0.00" arrival="74.00" arrivalPos="85.15" duration="73.00" routeLength="85.15" timeLoss="0.93" maxSpeed="1.18"/>
    </personinfo>
    <personinfo id="bwd4" depart="17.00" type="bwd4" speedFactor="1.00">
        <walk depart="17.00" departPos="85.15" arrival="76.00" arrivalPos="0.00" duration="59.00" routeLength="85.15" timeLoss="0.75" maxSpeed="1.46"/>
    </personinfo>
    <personinfo id="bwd0" depart="2.00" type="bwd0" speedFactor="1.00">
        <walk depart="2.00" departPos="85.15" arrival="79.00" arrivalPos="0.00" duration="77.00" routeLength="85.15" timeLoss="0.55" maxSpeed="1.11"/>
    </personinfo>
    <personinfo id="bwd2" depart="10.00" type="bwd2" speedFactor="1.00">
        <walk depart="10.00" departPos="85.15" arrival="85.00" arrivalPos="0.00" duration="75.00" routeLength="85.15" timeLoss="0.91" maxSpeed="1.15"/>
    </personinfo>
    <personinfo id="bwd8" depart="26.00" type="bwd8" speedFactor="1.00">
        <walk depart="26.00" departPos="85.15" arrival="87.00" arrivalPos="0.00" duration="61.00" routeLength="85.15" timeLoss="0.20" maxSpeed="1.40"/>
    </personinfo>
    <personinfo id="fwd8" depart="21.00" type="fwd8" speedFactor="1.00">
        <walk depart="21.00" departPos="0.00" arrival="88.00" arrivalPos="85.15" duration="67.00" routeLength="85.15" timeLoss="0.96" maxSpeed="1.29"/>
    </personinfo>
    <personinfo id="bwd5" depart="20.00" type="bwd5" speedFactor="1.00">
        <walk depart="20.00" departPos="85.15" arrival="88.00" arrivalPos="0.00" duration="68.00" routeLength="85.15" timeLoss="0.69" maxSpeed="1.26"/>
    </personinfo>
    <personinfo id="fwd7" depart="20.00" type="fwd7" speedFactor="1.00">
        <walk depart="20.00" departPos="0.00" arrival="89.00" arrivalPos="85.15" duration="69.00" routeLength="85.15" timeLoss="0.31" maxSpeed="1.24"/>
    </personinfo>
    <personinfo id="fwd6" depart="19.00" type="fwd6" speedFactor="1.00">
        <walk depart="19.00" departPos="0.00" arrival="91.00" arrivalPos="85.15" duration="72.00" routeLength="85.15" timeLoss="1.00" maxSpeed="1.20"/>
    </personinfo>
    <personinfo id="fwd10" depart="28.00" type="fwd10" speedFactor="1.00">
        <walk depart="28.00" departPos="0.00" arrival="93.00" arrivalPos="85.15" duration="65.00" routeLength="85.15" timeLoss="0.01" maxSpeed="1.31"/>
    </personinfo>
    <personinfo id="bwd13" depart="37.00" type="bwd13" speedFactor="1.00">
        <walk depart="37.00" departPos="85.15" arrival="94.00" arrivalPos="0.00" duration="57.00" routeLength="85.15" timeLoss="0.08" maxSpeed="1.50"/>
    </personinfo>
    <personinfo id="fwd3" depart="6.00" type="fwd3" speedFactor="1.00">
        <walk depart="6.00" departPos="0.00" arrival="95.00" arrivalPos="85.15" duration="89.00" routeLength="85.15" timeLoss="0.87" maxSpeed="0.97"/>
    </personinfo>
    <personinfo id="bwd9" depart="27.00" type="bwd9" speedFactor="1.00">
        <walk depart="27.00" departPos="85.15" arrival="95.00" arrivalPos="0.00" duration="68.00" routeLength="85.15" timeLoss="0.63" maxSpeed="1.26"/>
    </personinfo>
    <personinfo id="fwd9" depart="22.00" type="fwd9" speedFactor="1.00">
        <walk depart="22.00" departPos="0.00" arrival="101.00" arrivalPos="85.15" duration="79.00" routeLength="85.15" timeLoss="0.97" maxSpeed="1.09"/>
    </personinfo>
    <personinfo id="bwd10" depart="28.00" type="bwd10" speedFactor="1.00">
        <walk depart="28.00" departPos="85.15" arrival="102.00" arrivalPos="0.00" duration="74.00" routeLength="85.15" timeLoss="1.00" maxSpeed="1.17"/>
    </personinfo>
    <personinfo id="fwd5" depart="16.00" type="fwd5" speedFactor="1.00">
        <walk depart="16.00" departPos="0.00" arrival="103.00" arrivalPos="85.15" duration="87.00" routeLength="85.15" timeLoss="0.08" maxSpeed="0.98"/>
    </personinfo>
    <personinfo id="bwd14" depart="38.00" type="bwd14" speedFactor="1.00">
        <walk depart="38.00" departPos="85.15" arrival="105.00" arrivalPos="0.00" duration="67.00" routeLength="85.15" timeLoss="0.98" maxSpeed="1.29"/>
    </personinfo>
    <personinfo id="bwd11" depart="34.00" type="bwd11" speedFactor="1.00">
        <walk depart="34.00" departPos="85.15" arrival="105.00" arrivalPos="0.00" duration="71.00" routeLength="85.15" timeLoss="0.47" maxSpeed="1.21"/>
    </personinfo>
    <personinfo id="fwd11" depart="36.00" type="fwd11" speedFactor="1.00">
        <walk depart="36.00" departPos="0.00" arrival="110.00" arrivalPos="85.15" duration="74.00" routeLength="85.15" timeLoss="0.78" maxSpeed="1.16"/>
    </personinfo>
    <personinfo id="bwd7" depart="24.00" type="bwd7" speedFactor="1.00">
        <walk depart="24.00" departPos="85.15" arrival="111.00" arrivalPos="0.00" duration="87.00" routeLength="85.15" timeLoss="0.31" maxSpeed="0.98"/>
    </personinfo>
    <personinfo id="bwd6" depart="21.00" type="bwd6" speedFactor="1.00">
        <walk depart="21.00" departPos="85.15" arrival="111.00" arrivalPos="0.00" duration="90.00" routeLength="85.15" timeLoss="0.01" maxSpeed="0.95"/>
    </personinfo>
    <personinfo id="bwd15" depart="41.00" type="bwd15" speedFactor="1.00">
        <walk depart="41.00" departPos="85.15" arrival="112.00" arrivalPos="0.00" duration="71.00" routeLength="85.15" timeLoss="0.78" maxSpeed="1.21"/>
    </personinfo>
    <personinfo id="bwd12" depart="36.00" type="bwd12" speedFactor="1.00">
        <walk depart="36.00" departPos="85.15" arrival="114.00" arrivalPos="0.00" duration="78.00" routeLength="85.15" timeLoss="0.44" maxSpeed="1.10"/>
    </personinfo>
    <personinfo id="fwd13" depart="42.00" type="fwd13" speedFactor="1.00">
        <walk depart="42.00" departPos="0.00" arrival="117.00" arrivalPos="85.15" duration="75.00" routeLength="85.15" timeLoss="0.22" maxSpeed="1.14"/>
    </personinfo>
    <personinfo id="fwd19" depart="60.00" type="fwd19" speedFactor="1.00">
        <walk depart="60.00" departPos="0.00" arrival="118.00" arrivalPos="85.15" duration="58.00" routeLength="85.15" timeLoss="0.96" maxSpeed="1.49"/>
    </personinfo>
    <personinfo id="fwd12" depart="37.00" type="fwd12" speedFactor="1.00">
        <walk depart="37.00" departPos="0.00" arrival="119.00" arrivalPos="85.15" duration="82.00" routeLength="85.15" timeLoss="0.90" maxSpeed="1.05"/>
    </personinfo>
    <personinfo id="fwd16" depart="55.00" type="fwd16" speedFactor="1.00">
        <walk depart="55.00" departPos="0.00" arrival="122.00" arrivalPos="85.15" duration="67.00" routeLength="85.15" timeLoss="0.46" maxSpeed="1.28"/>
    </personinfo>
    <personinfo id="fwd2" depart="5.00" type="fwd2" speedFactor="1.00">
        <walk depart="5.00" departPos="0.00" arrival="124.00" arrivalPos="85.15" duration="119.00" routeLength="85.15" timeLoss="0.36" maxSpeed="0.72"/>
    </personinfo>
    <personinfo id="bwd18" depart="61.00" type="bwd18" speedFactor="1.00">
        <walk depart="61.00" departPos="85.15" arrival="124.00" arrivalPos="0.00" duration="63.00" routeLength="85.15" timeLoss="0.07" maxSpeed="1.35"/>
    </personinfo>
    <personinfo id="bwd16" depart="51.00" type="bwd16" speedFactor="1.00">
        <walk depart="51.00" departPos="85.15" arrival="128.00" arrivalPos="0.00" duration="77.00" routeLength="85.15" timeLoss="0.97" maxSpeed="1.12"/>
    </personinfo>
    <personinfo id="fwd17" depart="57.00" type="fwd17" speedFactor="1.00">
        <walk depart="57.00" departPos="0.00" arrival="128.00" arrivalPos="85.15" duration="71.00" routeLength="85.15" timeLoss="0.11" maxSpeed="1.20"/>
    </personinfo>
    <personinfo id="fwd18" depart="59.00" type="fwd18" speedFactor="1.00">
        <walk depart="59.00" departPos="0.00" arrival="130.00" arrivalPos="85.15" duration="71.00" routeLength="85.15" timeLoss="0.18" maxSpeed="1.20"/>
    </personinfo>
    <personinfo id="bwd3" depart="11.00" type="bwd3" speedFactor="1.00">
        <walk depart="11.00" departPos="85.15" arrival="130.00" arrivalPos="0.00" duration="119.00" routeLength="85.15" timeLoss="0.09" maxSpeed="0.72"/>
    </personinfo>
    <personinfo id="fwd15" depart="49.00" type="fwd15" speedFactor="1.00">
        <walk depart="49.00" departPos="0.00" arrival="131.00" arrivalPos="85.15" duration="82.00" routeLength="85.15" timeLoss="0.07" maxSpeed="1.04"/>
    </personinfo>
    <personinfo id="fwd22" depart="71.00" type="fwd22" speedFactor="1.00">
        <walk depart="71.00" departPos="0.00" arrival="136.00" arrivalPos="85.15" duration="65.00" routeLength="85.15" timeLoss="0.40" maxSpeed="1.32"/>
    </personinfo>
    <personinfo id="bwd20" depart="68.00" type="bwd20" speedFactor="1.00">
        <walk depart="68.00" departPos="85.15" arrival="139.00" arrivalPos="0.00" duration="71.00" routeLength="85.15" timeLoss="0.22" maxSpeed="1.20"/>
    </personinfo>
    <personinfo id="fwd25" depart="82.00" type="fwd25" speedFactor="1.00">
        <walk depart="82.00" departPos="0.00" arrival="143.00" arrivalPos="85.15" duration="61.00" routeLength="85.15" timeLoss="0.45" maxSpeed="1.41"/>
    </personinfo>
    <personinfo id="bwd19" depart="66.00" type="bwd19" speedFactor="1.00">
        <walk depart="66.00" departPos="85.15" arrival="144.00" arrivalPos="0.00" duration="78.00" routeLength="85.15" timeLoss="0.11" maxSpeed="1.09"/>
    </personinfo>
    <personinfo id="fwd20" depart="65.00" type="fwd20" speedFactor="1.00">
        <walk depart="65.00" departPos="0.00" arrival="145.00" arrivalPos="85.15" duration="80.00" routeLength="85.15" timeLoss="0.20" maxSpeed="1.07"/>
    </personinfo>
    <personinfo id="fwd23" depart="73.00" type="fwd23" speedFactor="1.00">
        <walk depart="73.00" departPos="0.00" arrival="148.00" arrivalPos="85.15" duration="75.00" routeLength="85.15" timeLoss="0.47" maxSpeed="1.14"/>
    </personinfo>
    <personinfo id="fwd27" depart="93.00" type="fwd27" speedFactor="1.00">
        <walk depart="93.00" departPos="0.00" arrival="153.00" arrivalPos="85.15" duration="60.00" routeLength="85.15" timeLoss="0.01" maxSpeed="1.42"/>
    </personinfo>
    <personinfo id="fwd29" depart="97.00" type="fwd29" speedFactor="1.00">
        <walk depart="97.00" departPos="0.00" arrival="155.00" arrivalPos="85.15" duration="58.00" routeLength="85.15" timeLoss="0.14" maxSpeed="1.47"/>
    </personinfo>
    <personinfo id="fwd14" depart="43.00" type="fwd14" speedFactor="1.00">
        <walk depart="43.00" departPos="0.00" arrival="159.00" arrivalPos="85.15" duration="116.00" routeLength="85.15" timeLoss="0.81" maxSpeed="0.74"/>
    </personinfo>
    <personinfo id="fwd31" depart="103.00" type="fwd31" speedFactor="1.00">
        <walk depart="103.00" departPos="0.00" arrival="161.00" arrivalPos="85.15" duration="58.00" routeLength="85.15" timeLoss="0.98" maxSpeed="1.49"/>
    </personinfo>
    <personinfo id="bwd24" depart="104.00" type="bwd24" speedFactor="1.00">
        <walk depart="104.00" departPos="85.15" arrival="162.00" arrivalPos="0.00" duration="58.00" routeLength="85.15" timeLoss="0.02" maxSpeed="1.47"/>
    </personinfo>
    <personinfo id="bwd23" depart="101.00" type="bwd23" speedFactor="1.00">
        <walk depart="101.00" departPos="85.15" arrival="167.00" arrivalPos="0.00" duration="66.00" routeLength="85.15" timeLoss="0.61" maxSpeed="1.30"/>
    </personinfo>
    <personinfo id="fwd34" depart="109.00" type="fwd34" speedFactor="1.00">
        <walk depart="109.00" departPos="0.00" arrival="167.00" arrivalPos="85.15" duration="58.00" routeLength="85.15" timeLoss="0.52" maxSpeed="1.48"/>
    </personinfo>
    <personinfo id="bwd25" depart="105.00" type="bwd25" speedFactor="1.00">
        <walk depart="105.00" departPos="85.15" arrival="170.00" arrivalPos="0.00" duration="65.00" routeLength="85.15" timeLoss="0.66" maxSpeed="1.32"/>
    </personinfo>
    <personinfo id="fwd35" depart="110.00" type="fwd35" speedFactor="1.00">
        <walk depart="110.00" departPos="0.00" arrival="170.00" arrivalPos="85.15" duration="60.00" routeLength="85.15" timeLoss="0.10" maxSpeed="1.42"/>
    </personinfo>
    <personinfo id="bwd17" depart="60.00" type="bwd17" speedFactor="1.00">
        <walk depart="60.00" departPos="85.15" arrival="171.00" arrivalPos="0.00" duration="111.00" routeLength="85.15" timeLoss="0.54" maxSpeed="0.77"/>
    </personinfo>
    <personinfo id="bwd29" depart="116.00" type="bwd29" speedFactor="1.00">
        <walk depart="116.00" departPos="85.15" arrival="175.00" arrivalPos="0.00" duration="59.00" routeLength="85.15" timeLoss="0.34" maxSpeed="1.45"/>
    </personinfo>
    <personinfo id="fwd28" depart="94.00" type="fwd28" speedFactor="1.00">
        <walk depart="94.00" departPos="0.00" arrival="176.00" arrivalPos="85.15" duration="82.00" routeLength="85.15" timeLoss="0.61" maxSpeed="1.05"/>
    </personinfo>
    <personinfo id="bwd22" depart="85.00" type="bwd22" speedFactor="1.00">
        <walk depart="85.00" departPos="85.15" arrival="176.00" arrivalPos="0.00" duration="91.00" routeLength="85.15" timeLoss="0.15" maxSpeed="0.94"/>
    </personinfo>
    <personinfo id="fwd24" depart="81.00" type="fwd24" speedFactor="1.00">
        <walk depart="81.00" departPos="0.00" arrival="179.00" arrivalPos="85.15" duration="98.00" routeLength="85.15" timeLoss="0.82" maxSpeed="0.88"/>
    </personinfo>
    <personinfo id="fwd37" depart="120.00" type="fwd37" speedFactor="1.00">
        <walk depart="120.00" departPos="0.00" arrival="185.00" arrivalPos="85.15" duration="65.00" routeLength="85.15" timeLoss="0.39" maxSpeed="1.32"/>
    </personinfo>
    <personinfo id="bwd30" depart="120.00" type="bwd30" speedFactor="1.00">
        <walk depart="120.00" departPos="85.15" arrival="186.00" arrivalPos="0.00" duration="66.00" routeLength="85.15" timeLoss="0.17" maxSpeed="1.29"/>
    </personinfo>
    <personinfo id="fwd32" depart="105.00" type="fwd32" speedFactor="1.00">
        <walk depart="105.00" departPos="0.00" arrival="187.00" arrivalPos="85.15" duration="82.00" routeLength="85.15" timeLoss="0.53" maxSpeed="1.05"/>
    </personinfo>
    <personinfo id="fwd26" depart="84.00" type="fwd26" speedFactor="1.00">
        <walk depart="84.00" departPos="0.00" arrival="187.00" arrivalPos="85.15" duration="103.00" routeLength="85.15" timeLoss="0.27" maxSpeed="0.83"/>
    </personinfo>
    <personinfo id="bwd21" depart="74.00" type="bwd21" speedFactor="1.00">
        <walk depart="74.00" departPos="85.15" arrival="188.00" arrivalPos="0.00" duration="114.00" routeLength="85.15" timeLoss="0.97" maxSpeed="0.75"/>
    </personinfo>
    <personinfo id="fwd21" depart="66.00" type="fwd21" speedFactor="1.00">
        <walk depart="66.00" departPos="0.00" arrival="188.00" arrivalPos="85.15" duration="122.00" routeLength="85.15" timeLoss="0.96" maxSpeed="0.70"/>
    </personinfo>
    <personinfo id="bwd26" depart="110.00" type="bwd26" speedFactor="1.00">
        <walk depart="110.00" departPos="85.15" arrival="188.00" arrivalPos="0.00" duration="78.00" routeLength="85.15" timeLoss="0.74" maxSpeed="1.10"/>
    </personinfo>
    <personinfo id="bwd31" depart="127.00" type="bwd31" speedFactor="1.00">
        <walk depart="127.00" departPos="85.15" arrival="188.00" arrivalPos="0.00" duration="61.00" routeLength="85.15" timeLoss="0.04" maxSpeed="1.40"/>
    </personinfo>
    <personinfo id="fwd33" depart="107.00" type="fwd33" speedFactor="1.00">
        <walk depart="107.00" departPos="0.00" arrival="194.00" arrivalPos="85.15" duration="87.00" routeLength="85.15" timeLoss="0.41" maxSpeed="0.98"/>
    </personinfo>
    <personinfo id="fwd42" depart="135.00" type="fwd42" speedFactor="1.00">
        <walk depart="135.00" departPos="0.00" arrival="196.00" arrivalPos="85.15" duration="61.00" routeLength="85.15" timeLoss="0.30" maxSpeed="1.40"/>
    </personinfo>
    <personinfo id="bwd35" depart="136.00" type="bwd35" speedFactor="1.00">
        <walk depart="136.00" departPos="85.15" arrival="197.00" arrivalPos="0.00" duration="61.00" routeLength="85.15" timeLoss="0.91" maxSpeed="1.42"/>
    </personinfo>
    <personinfo id="fwd39" depart="130.00" type="fwd39" speedFactor="1.00">
        <walk depart="130.00" departPos="0.00" arrival="201.00" arrivalPos="85.15" duration="71.00" routeLength="85.15" timeLoss="0.69" maxSpeed="1.21"/>
    </personinfo>
    <personinfo id="bwd32" depart="128.00" type="bwd32" speedFactor="1.00">
        <walk depart="128.00" departPos="85.15" arrival="204.00" arrivalPos="0.00" duration="76.00" routeLength="85.15" timeLoss="0.36" maxSpeed="1.13"/>
    </personinfo>
    <personinfo id="fwd40" depart="131.00" type="fwd40" speedFactor="1.00">
        <walk depart="131.00" departPos="0.00" arrival="205.00" arrivalPos="85.15" duration="74.00" routeLength="85.15" timeLoss="0.78" maxSpeed="1.16"/>
    </personinfo>
    <personinfo id="bwd36" depart="140.00" type="bwd36" speedFactor="1.00">
        <walk depart="140.00" departPos="85.15" arrival="206.00" arrivalPos="0.00" duration="66.00" routeLength="85.15" timeLoss="0.91" maxSpeed="1.31"/>
    </personinfo>
    <personinfo id="fwd41" depart="134.00" type="fwd41" speedFactor="1.00">
        <walk depart="134.00" departPos="0.00" arrival="209.00" arrivalPos="85.15" duration="75.00" routeLength="85.15" timeLoss="0.93" maxSpeed="1.15"/>
    </personinfo>
    <personinfo id="bwd27" depart="111.00" type="bwd27" speedFactor="1.00">
        <walk depart="111.00" departPos="85.15" arrival="212.00" arrivalPos="0.00" duration="101.00" routeLength="85.15" timeLoss="0.78" maxSpeed="0.85"/>
    </personinfo>
    <personinfo id="bwd38" depart="151.00" type="bwd38" speedFactor="1.00">
        <walk depart="151.00" departPos="85.15" arrival="214.00" arrivalPos="0.00" duration="63.00" routeLength="85.15" timeLoss="0.84" maxSpeed="1.37"/>
    </personinfo>
    <personinfo id="fwd30" depart="101.00" type="fwd30" speedFactor="1.00">
        <walk depart="101.00" departPos="0.00" arrival="214.00" arrivalPos="85.15" duration="113.00" routeLength="85.15" timeLoss="0.66" maxSpeed="0.76"/>
    </personinfo>
    <personinfo id="fwd47" depart="157.00" type="fwd47" speedFactor="1.00">
        <walk depart="157.00" departPos="0.00" arrival="218.00" arrivalPos="85.15" duration="61.00" routeLength="85.15" timeLoss="0.70" maxSpeed="1.41"/>
    </personinfo>
    <personinfo id="fwd36" depart="111.00" type="fwd36" speedFactor="1.00">
        <walk depart="111.00" departPos="0.00" arrival="223.00" arrivalPos="85.15" duration="112.00" routeLength="85.15" timeLoss="0.26" maxSpeed="0.76"/>
    </personinfo>
    <personinfo id="bwd40" depart="162.00" type="bwd40" speedFactor="1.00">
        <walk depart="162.00" departPos="85.15" arrival="224.00" arrivalPos="0.00" duration="62.00" routeLength="85.15" timeLoss="0.20" maxSpeed="1.38"/>
    </personinfo>
    <personinfo id="fwd46" depart="155.00" type="fwd46" speedFactor="1.00">
        <walk depart="155.00" departPos="0.00" arrival="228.00" arrivalPos="85.15" duration="73.00" routeLength="85.15" timeLoss="0.00" maxSpeed="1.17"/>
    </personinfo>
    <personinfo id="fwd52" depart="164.00" type="fwd52" speedFactor="1.00">
        <walk depart="164.00" departPos="0.00" arrival="229.00" arrivalPos="85.15" duration="65.00" routeLength="85.15" timeLoss="0.21" maxSpeed="1.31"/>
    </personinfo>
    <personinfo id="bwd28" depart="112.00" type="bwd28" speedFactor="1.00">
        <walk depart="112.00" departPos="85.15" arrival="231.00" arrivalPos="0.00" duration="119.00" routeLength="85.15" timeLoss="0.83" maxSpeed="0.72"/>
    </personinfo>
    <personinfo id="fwd45" depart="151.00" type="fwd45" speedFactor="1.00">
        <walk depart="151.00" departPos="0.00" arrival="232.00" arrivalPos="85.15" duration="81.00" routeLength="85.15" timeLoss="0.87" maxSpeed="1.06"/>
    </personinfo>
    <personinfo id="fwd38" depart="127.00" type="fwd38" speedFactor="1.00">
        <walk depart="127.00" departPos="0.00" arrival="232.00" arrivalPos="85.15" duration="105.00" routeLength="85.15" timeLoss="0.85" maxSpeed="0.82"/>
    </personinfo>
    <personinfo id="fwd44" depart="148.00" type="fwd44" speedFactor="1.00">
        <walk depart="148.00" departPos="0.00" arrival="232.00" arrivalPos="85.15" duration="84.00" routeLength="85.15" timeLoss="0.67" maxSpeed="1.02"/>
    </personinfo>
    <personinfo id="bwd37" depart="144.00" type="bwd37" speedFactor="1.00">
        <walk depart="144.00" departPos="85.15" arrival="232.00" arrivalPos="0.00" duration="88.00" routeLength="85.15" timeLoss="0.42" maxSpeed="0.97"/>
    </personinfo>
    <personinfo id="bwd33" depart="133.00" type="bwd33" speedFactor="1.00">
        <walk depart="133.00" departPos="85.15" arrival="234.00" arrivalPos="0.00" duration="101.00" routeLength="85.15" timeLoss="0.59" maxSpeed="0.85"/>
    </personinfo>
    <personinfo id="bwd43" depart="171.00" type="bwd43" speedFactor="1.00">
        <walk depart="171.00" departPos="85.15" arrival="235.00" arrivalPos="0.00" duration="64.00" routeLength="85.15" timeLoss="0.74" maxSpeed="1.35"/>
    </personinfo>
    <personinfo id="fwd56" depart="173.00" type="fwd56" speedFactor="1.00">
        <walk depart="173.00" departPos="0.00" arrival="235.00" arrivalPos="85.15" duration="62.00" routeLength="85.15" timeLoss="0.65" maxSpeed="1.39"/>
    </personinfo>
    <personinfo id="fwd54" depart="170.00" type="fwd54" speedFactor="1.00">
        <walk depart="170.00" departPos="0.00" arrival="237.00" arrivalPos="85.15" duration="67.00" routeLength="85.15" timeLoss="0.94" maxSpeed="1.29"/>
    </personinfo>
    <personinfo id="fwd57" depart="175.00" type="fwd57" speedFactor="1.00">
        <walk depart="175.00" departPos="0.00" arrival="237.00" arrivalPos="85.15" duration="62.00" routeLength="85.15" timeLoss="0.49" maxSpeed="1.38"/>
    </personinfo>
    <personinfo id="bwd34" depart="134.00" type="bwd34" speedFactor="1.00">
        <walk depart="134.00" departPos="85.15" arrival="244.00" arrivalPos="0.00" duration="110.00" routeLength="85.15" timeLoss="0.08" maxSpeed="0.77"/>
    </personinfo>
    <personinfo id="bwd45" depart="174.00" type="bwd45" speedFactor="1.00">
        <walk depart="174.00" departPos="85.15" arrival="245.00" arrivalPos="0.00" duration="71.00" routeLength="85.15" timeLoss="0.49" maxSpeed="1.21"/>
    </personinfo>
    <personinfo id="bwd39" depart="154.00" type="bwd39" speedFactor="1.00">
        <walk depart="154.00" departPos="85.15" arrival="247.00" arrivalPos="0.00" duration="93.00" routeLength="85.15" timeLoss="0.28" maxSpeed="0.92"/>
    </personinfo>
    <personinfo id="bwd42" depart="170.00" type="bwd42" speedFactor="1.00">
        <walk depart="170.00" departPos="85.15" arrival="249.00" arrivalPos="0.00" duration="79.00" routeLength="85.15" timeLoss="0.78" maxSpeed="1.09"/>
    </personinfo>
    <personinfo id="fwd50" depart="161.00" type="fwd50" speedFactor="1.00">
        <walk depart="161.00" departPos="0.00" arrival="252.00" arrivalPos="85.15" duration="91.00" routeLength="85.15" timeLoss="0.35" maxSpeed="0.94"/>
    </personinfo>
    <personinfo id="bwd50" depart="192.00" type="bwd50" speedFactor="1.00">
        <walk depart="192.00" departPos="85.15" arrival="252.00" arrivalPos="0.00" duration="60.00" routeLength="85.15" timeLoss="0.29" maxSpeed="1.43"/>
    </personinfo>
    <personinfo id="fwd43" depart="142.00" type="fwd43" speedFactor="1.00">
        <walk depart="142.00" departPos="0.00" arrival="254.00" arrivalPos="85.15" duration="112.00" routeLength="85.15" timeLoss="0.62" maxSpeed="0.76"/>
    </personinfo>
    <personinfo id="fwd55" depart="171.00" type="fwd55" speedFactor="1.00">
        <walk depart="171.00" departPos="0.00" arrival="255.00" arrivalPos="85.15" duration="84.00" routeLength="85.15" timeLoss="0.25" maxSpeed="1.02"/>
    </personinfo>
    <personinfo id="fwd61" depart="198.00" type="fwd61" speedFactor="1.00">
        <walk depart="198.00" departPos="0.00" arrival="259.00" arrivalPos="85.15" duration="61.00" routeLength="85.15" timeLoss="0.84" maxSpeed="1.42"/>
    </personinfo>
    <personinfo id="bwd48" depart="187.00" type="bwd48" speedFactor="1.00">
        <walk depart="187.00" departPos="85.15" arrival="262.00" arrivalPos="0.00" duration="75.00" routeLength="85.15" timeLoss="0.21" maxSpeed="1.14"/>
    </personinfo>
    <personinfo id="fwd53" depart="168.00" type="fwd53" speedFactor="1.00">
        <walk depart="168.00" departPos="0.00" arrival="263.00" arrivalPos="85.15" duration="95.00" routeLength="85.15" timeLoss="0.61" maxSpeed="0.90"/>
    </personinfo>
    <personinfo id="fwd58" depart="179.00" type="fwd58" speedFactor="1.00">
        <walk depart="179.00" departPos="0.00" arrival="263.00" arrivalPos="85.15" duration="84.00" routeLength="85.15" timeLoss="0.23" maxSpeed="1.02"/>
    </personinfo>
    <personinfo id="fwd49" depart="160.00" type="fwd49" speedFactor="1.00">
        <walk depart="160.00" departPos="0.00" arrival="263.00" arrivalPos="85.15" duration="103.00" routeLength="85.15" timeLoss="0.13" maxSpeed="0.83"/>
    </personinfo>
    <personinfo id="fwd51" depart="162.00" type="fwd51" speedFactor="1.00">
        <walk depart="162.00" departPos="0.00" arrival="264.00" arrivalPos="85.15" duration="102.00" routeLength="85.15" timeLoss="0.05" maxSpeed="0.84"/>
    </personinfo>
    <personinfo id="bwd41" depart="169.00" type="bwd41" speedFactor="1.00">
        <walk depart="169.00" departPos="85.15" arrival="266.00" arrivalPos="0.00" duration="97.00" routeLength="85.15" timeLoss="0.10" maxSpeed="0.88"/>
    </personinfo>
    <personinfo id="bwd46" depart="181.00" type="bwd46" speedFactor="1.00">
        <walk depart="181.00" departPos="85.15" arrival="267.00" arrivalPos="0.00" duration="86.00" routeLength="85.15" timeLoss="0.56" maxSpeed="1.00"/>
    </personinfo>
    <personinfo id="fwd48" depart="158.00" type="fwd48" speedFactor="1.00">
        <walk depart="158.00" departPos="0.00" arrival="269.00" arrivalPos="85.15" duration="111.00" routeLength="85.15" timeLoss="0.13" maxSpeed="0.77"/>
    </personinfo>
    <personinfo id="bwd51" depart="207.00" type="bwd51" speedFactor="1.00">
        <walk depart="207.00" departPos="85.15" arrival="272.00" arrivalPos="0.00" duration="65.00" routeLength="85.15" timeLoss="0.40" maxSpeed="1.32"/>
    </personinfo>
    <personinfo id="bwd49" depart="188.00" type="bwd49" speedFactor="1.00">
        <walk depart="188.00" departPos="85.15" arrival="275.00" arrivalPos="0.00" duration="87.00" routeLength="85.15" timeLoss="0.50" maxSpeed="0.98"/>
    </personinfo>
    <personinfo id="bwd44" depart="173.00" type="bwd44" speedFactor="1.00">
        <walk depart="173.00" departPos="85.15" arrival="279.00" arrivalPos="0.00" duration="106.00" routeLength="85.15" timeLoss="0.19" maxSpeed="0.80"/>
    </personinfo>
    <personinfo id="fwd60" depart="187.00" type="fwd60" speedFactor="1.00">
        <walk depart="187.00" departPos="0.00" arrival="280.00" arrivalPos="85.15" duration="93.00" routeLength="85.15" timeLoss="0.83" maxSpeed="0.92"/>
    </personinfo>
    <personinfo id="bwd53" depart="213.00" type="bwd53" speedFactor="1.00">
        <walk depart="213.00" departPos="85.15" arrival="280.00" arrivalPos="0.00" duration="67.00" routeLength="85.15" timeLoss="0.56" maxSpeed="1.28"/>
    </personinfo>
    <personinfo id="fwd59" depart="180.00" type="fwd59" speedFactor="1.00">
        <walk depart="180.00" departPos="0.00" arrival="281.00" arrivalPos="85.15" duration="101.00" routeLength="85.15" timeLoss="0.52" maxSpeed="0.85"/>
    </personinfo>
    <personinfo id="fwd63" depart="208.00" type="fwd63" speedFactor="1.00">
        <walk depart="208.00" departPos="0.00" arrival="283.00" arrivalPos="85.15" duration="75.00" routeLength="85.15" timeLoss="0.21" maxSpeed="1.14"/>
    </personinfo>
    <personinfo id="fwd66" depart="216.00" type="fwd66" speedFactor="1.00">