<?xml version="1.0" encoding="UTF-8"?>

<!-- generated on 2026-04-09T16:38:00.650898+01:00 by Eclipse SUMO sumo v1_26_0+1034-8d7c6592743
This data file and the accompanying materials
are made available under the terms of the Eclipse Public License v2.0
which accompanies this distribution, and is available at
http://www.eclipse.org/legal/epl-v20.html
This file may also be made available under the following Secondary
Licenses when the conditions for such availability set forth in the Eclipse
Public License 2.0 are satisfied: GNU General Public License, version 2
or later which is available at
https://www.gnu.org/licenses/old-licenses/gpl-2.0-standalone.html
SPDX-License-Identifier: EPL-2.0 OR GPL-2.0-or-later
<sumoConfiguration xmlns:xsi="http://www.w3.org/2001/XMLSchema-instance" xsi:noNamespaceSchemaLocation="http://sumo.dlr.de/xsd/sumoConfiguration.xsd">

    <input>
        <net-file value="net2.net.xml"/>
        <route-files value="input_routes.rou.xml"/>
        <additional-files value="input_additional.add.xml"/>
    </input>

    <output>
        <write-license value="true"/>
        <vehroute-output value="vehroutes.xml"/>
        <vehroute-output.exit-times value="true"/>
    </output>

    <processing>
        <default.speeddev value="0"/>
    </processing>

    <report>
        <xml-validation value="never"/>
        <no-step-log value="true"/>
    </report>

    <mesoscopic>
        <mesosim value="true"/>
    </mesoscopic>

</sumoConfiguration>
-->

<routes xmlns:xsi="http://www.w3.org/2001/XMLSchema-instance" xsi:noNamespaceSchemaLocation="http://sumo.dlr.de/xsd/routes_file.xsd">
    <vehicle id="v0" depart="0.00" arrival="64.00">
        <route edges="E0 E1 E2 E3 E4 E5" exitTimes="13.00 20.00 32.00 44.00 52.00 64.00"/>
        <stop busStop="bs_0" duration="5.00" started="0.00" ended="13.00"/>
        <stop busStop="bs_1" duration="5.00" jump="10.00" jumpUntil="100.00" started="19.41" ended="32.00"/>
        <stop busStop="bs_2" duration="5.00" started="31.61" ended="44.00"/>
        <stop busStop="bs_3" duration="5.00" started="51.02" ended="64.00"/>
    </vehicle>

</routes>
