<?xml version="1.0" encoding="UTF-8"?>

<!-- generated on 2022-01-03 21:10:32 by Eclipse SUMO sumo Version v1_11_0+0725-9c0e5f3
<configuration xmlns:xsi="http://www.w3.org/2001/XMLSchema-instance" xsi:noNamespaceSchemaLocation="http://sumo.dlr.de/xsd/sumoConfiguration.xsd">

    <input>
        <net-file value="net.net.xml"/>
        <route-files value="input_routes.rou.xml"/>
    </input>

    <output>
        <tripinfo-output value="tripinfos.xml"/>
        <tripinfo-output.write-unfinished value="true"/>
        <vehroute-output value="vehroutes.xml"/>
        <vehroute-output.write-unfinished value="true"/>
        <stop-output value="stopinfos.xml"/>
    </output>

    <time>
        <end value="1000"/>
    </time>

    <report>
        <duration-log.disable value="true"/>
        <no-step-log value="true"/>
    </report>

    <taxi_device>
        <device.taxi.dispatch-period value="10"/>
        <device.taxi.idle-algorithm value="randomCircling"/>
    </taxi_device>

</configuration>
-->

<routes xmlns:xsi="http://www.w3.org/2001/XMLSchema-instance" xsi:noNamespaceSchemaLocation="http://sumo.dlr.de/xsd/routes_file.xsd">
    <person id="p0" depart="5.00" departPos="110.00" arrival="128.00">
        <ride from="A2B2" to="B2C2" arrivalPos="285.60" lines="taxi"/>
    </person>

    <vehicle id="trip_1" type="taxi" depart="0.00">
        <routeDistribution>
            <route replacedOnEdge="A2B2" reason="taxi:prepare_dispatch" replacedAtTime="10.00" probability="0" edges="A2B2 B2C2 C2C1"/>
            <route replacedOnEdge="A2B2" reason="taxi:dispatch" replacedAtTime="10.00" probability="0" edges="A2B2 A2B2 B2C2"/>
            <route replacedOnEdge="B2C2" reason="taxi:idling:randomCircling" replacedAtTime="187.00" probability="0" edges="A2B2 B2B1 B1A1 A1A2 A2B2 B2C2"/>
            <route replacedOnEdge="C2B2" reason="taxi:idling:randomCircling" replacedAtTime="212.00" probability="0" edges="A2B2 B2B1 B1A1 A1A2 A2B2 B2C2 C2C1 C1C2 C2B2 B2B1"/>
            <route replacedOnEdge="C2B2" reason="taxi:idling:randomCircling" replacedAtTime="225.00" probability="0" edges="A2B2 B2B1 B1A1 A1A2 A2B2 B2C2 C2C1 C1C2 C2B2 B2B1 B1B0"/>
            <route replacedOnEdge="C2B2" reason="taxi:idling:randomCircling" replacedAtTime="231.00" probability="0" edges="A2B2 B2B1 B1A1 A1A2 A2B2 B2C2 C2C1 C1C2 C2B2 B2B1 B1B0 B0C0"/>
            <route replacedOnEdge="B0C0" reason="taxi:idling:randomCircling" replacedAtTime="253.00" probability="0" edges="A2B2 B2B1 B1A1 A1A2 A2B2 B2C2 C2C1 C1C2 C2B2 B2B1 B1B0 B0C0 C0D0"/>
            <route replacedOnEdge="C0D0" reason="taxi:idling:randomCircling" replacedAtTime="275.00" probability="0" edges="A2B2 B2B1 B1A1 A1A2 A2B2 B2C2 C2C1 C1C2 C2B2 B2B1 B1B0 B0C0 C0D0 D0D1"/>
            <route replacedOnEdge="C0D0" reason="taxi:idling:randomCircling" replacedAtTime="288.00" probability="0" edges="A2B2 B2B1 B1A1 A1A2 A2B2 B2C2 C2C1 C1C2 C2B2 B2B1 B1B0 B0C0 C0D0 D0D1 D1D2"/>
            <route replacedOnEdge="C0D0" reason="taxi:idling:randomCircling" replacedAtTime="294.00" probability="0" edges="A2B2 B2B1 B1A1 A1A2 A2B2 B2C2 C2C1 C1C2 C2B2 B2B1 B1B0 B0C0 C0D0 D0D1 D1D2 D2D1"/>
            <route replacedOnEdge="D0D1" reason="taxi:idling:randomCircling" replacedAtTime="304.00" probability="0" edges="A2B2 B2B1 B1A1 A1A2 A2B2 B2C2 C2C1 C1C2 C2B2 B2B1 B1B0 B0C0 C0D0 D0D1 D1D2 D2D1 D1D0"/>
            <route replacedOnEdge="D1D2" reason="taxi:idling:randomCircling" replacedAtTime="311.00" probability="0" edges="A2B2 B2B1 B1A1 A1A2 A2B2 B2C2 C2C1 C1C2 C2B2 B2B1 B1B0 B0C0 C0D0 D0D1 D1D2 D2D1 D1D0 D0C0"/>
            <route replacedOnEdge="D0C0" reason="taxi:idling:randomCircling" replacedAtTime="334.00" probability="0" edges="A2B2 B2B1 B1A1 A1A2 A2B2 B2C2 C2C1 C1C2 C2B2 B2B1 B1B0 B0C0 C0D0 D0D1 D1D2 D2D1 D1D0 D0C0 C0D0"/>
            <route replacedOnEdge="C0D0" reason="taxi:idling:randomCircling" replacedAtTime="358.00" probability="0" edges="A2B2 B2B1 B1A1 A1A2 A2B2 B2C2 C2C1 C1C2 C2B2 B2B1 B1B0 B0C0 C0D0 D0D1 D1D2 D2D1 D1D0 D0C0 C0D0 D0D1"/>
            <route replacedOnEdge="C0D0" reason="taxi:idling:randomCircling" replacedAtTime="373.00" probability="0" edges="A2B2 B2B1 B1A1 A1A2 A2B2 B2C2 C2C1 C1C2 C2B2 B2B1 B1B0 B0C0 C0D0 D0D1 D1D2 D2D1 D1D0 D0C0 C0D0 D0D1 D1E1"/>
            <route replacedOnEdge="D1E1" reason="taxi:idling:randomCircling" replacedAtTime="393.00" probability="0" edges="A2B2 B2B1 B1A1 A1A2 A2B2 B2C2 C2C1 C1C2 C2B2 B2B1 B1B0 B0C0 C0D0 D0D1 D1D2 D2D1 D1D0 D0C0 C0D0 D0D1 D1E1 E1E0"/>
            <route replacedOnEdge="D1E1" reason="taxi:idling:randomCircling" replacedAtTime="407.00" probability="0" edges="A2B2 B2B1 B1A1 A1A2 A2B2 B2C2 C2C1 C1C2 C2B2 B2B1 B1B0 B0C0 C0D0 D0D1 D1D2 D2D1 D1D0 D0C0 C0D0 D0D1 D1E1 E1E0 E0E1"/>
            <route replacedOnEdge="D1E1" reason="taxi:idling:randomCircling" replacedAtTime="413.00" probability="0" edges="A2B2 B2B1 B1A1 A1A2 A2B2 B2C2 C2C1 C1C2 C2B2 B2B1 B1B0 B0C0 C0D0 D0D1 D1D2 D2D1 D1D0 D0C0 C0D0 D0D1 D1E1 E1E0 E0E1 E1D1"/>
            <route replacedOnEdge="E1D1" reason="taxi:idling:randomCircling" replacedAtTime="438.00" probability="0" edges="A2B2 B2B1 B1A1 A1A2 A2B2 B2C2 C2C1 C1C2 C2B2 B2B1 B1B0 B0C0 C0D0 D0D1 D1D2 D2D1 D1D0 D0C0 C0D0 D0D1 D1E1 E1E0 E0E1 E1D1 D1D0"/>
            <route replacedOnEdge="E1D1" reason="taxi:idling:randomCircling" replacedAtTime="451.00" probability="0" edges="A2B2 B2B1 B1A1 A1A2 A2B2 B2C2 C2C1 C1C2 C2B2 B2B1 B1B0 B0C0 C0D0 D0D1 D1D2 D2D1 D1D0 D0C0 C0D0 D0D1 D1E1 E1E0 E0E1 E1D1 D1D0 D0D1"/>
            <route replacedOnEdge="E1D1" reason="taxi:idling:randomCircling" replacedAtTime="457.00" probability="0" edges="A2B2 B2B1 B1A1 A1A2 A2B2 B2C2 C2C1 C1C2 C2B2 B2B1 B1B0 B0C0 C0D0 D0D1 D1D2 D2D1 D1D0 D0C0 C0D0 D0D1 D1E1 E1E0 E0E1 E1D1 D1D0 D0D1 D1D0"/>
            <route replacedOnEdge="D1D0" reason="taxi:idling:randomCircling" replacedAtTime="468.00" probability="0" edges="A2B2 B2B1 B1A1 A1A2 A2B2 B2C2 C2C1 C1C2 C2B2 B2B1 B1B0 B0C0 C0D0 D0D1 D1D2 D2D1 D1D0 D0C0 C0D0 D0D1 D1E1 E1E0 E0E1 E1D1 D1D0 D0D1 D1D0 D0D1"/>
            <route replacedOnEdge="D0D1" reason="taxi:idling:randomCircling" replacedAtTime="479.00" probability="0" edges="A2B2 B2B1 B1A1 A1A2 A2B2 B2C2 C2C1 C1C2 C2B2 B2B1 B1B0 B0C0 C0D0 D0D1 D1D2 D2D1 D1D0 D0C0 C0D0 D0D1 D1E1 E1E0 E0E1 E1D1 D1D0 D0D1 D1D0 D0D1 D1E1"/>
            <route replacedOnEdge="D1E1" reason="taxi:idling:randomCircling" replacedAtTime="505.00" probability="0" edges="A2B2 B2B1 B1A1 A1A2 A2B2 B2C2 C2C1 C1C2 C2B2 B2B1 B1B0 B0C0 C0D0 D0D1 D1D2 D2D1 D1D0 D0C0 C0D0 D0D1 D1E1 E1E0 E0E1 E1D1 D1D0 D0D1 D1D0 D0D1 D1E1 E1E0"/>
            <route replacedOnEdge="D1E1" reason="taxi:idling:randomCircling" replacedAtTime="519.00" probability="0" edges="A2B2 B2B1 B1A1 A1A2 A2B2 B2C2 C2C1 C1C2 C2B2 B2B1 B1B0 B0C0 C0D0 D0D1 D1D2 D2D1 D1D0 D0C0 C0D0 D0D1 D1E1 E1E0 E0E1 E1D1 D1D0 D0D1 D1D0 D0D1 D1E1 E1E0 E0F0"/>
            <route replacedOnEdge="E0F0" reason="taxi:idling:randomCircling" replacedAtTime="540.00" probability="0" edges="A2B2 B2B1 B1A1 A1A2 A2B2 B2C2 C2C1 C1C2 C2B2 B2B1 B1B0 B0C0 C0D0 D0D1 D1D2 D2D1 D1D0 D0C0 C0D0 D0D1 D1E1 E1E0 E0E1 E1D1 D1D0 D0D1 D1D0 D0D1 D1E1 E1E0 E0F0 F0F1"/>
            <route replacedOnEdge="E0F0" reason="taxi:idling:randomCircling" replacedAtTime="554.00" probability="0" edges="A2B2 B2B1 B1A1 A1A2 A2B2 B2C2 C2C1 C1C2 C2B2 B2B1 B1B0 B0C0 C0D0 D0D1 D1D2 D2D1 D1D0 D0C0 C0D0 D0D1 D1E1 E1E0 E0E1 E1D1 D1D0 D0D1 D1D0 D0D1 D1E1 E1E0 E0F0 F0F1 F1F2"/>
            <route replacedOnEdge="E0F0" reason="taxi:idling:randomCircling" replacedAtTime="560.00" probability="0" edges="A2B2 B2B1 B1A1 A1A2 A2B2 B2C2 C2C1 C1C2 C2B2 B2B1 B1B0 B0C0 C0D0 D0D1 D1D2 D2D1 D1D0 D0C0 C0D0 D0D1 D1E1 E1E0 E0E1 E1D1 D1D0 D0D1 D1D0 D0D1 D1E1 E1E0 E0F0 F0F1 F1F2 F2E2"/>
            <route replacedOnEdge="F2E2" reason="taxi:idling:randomCircling" replacedAtTime="581.00" probability="0" edges="A2B2 B2B1 B1A1 A1A2 A2B2 B2C2 C2C1 C1C2 C2B2 B2B1 B1B0 B0C0 C0D0 D0D1 D1D2 D2D1 D1D0 D0C0 C0D0 D0D1 D1E1 E1E0 E0E1 E1D1 D1D0 D0D1 D1D0 D0D1 D1E1 E1E0 E0F0 F0F1 F1F2 F2E2 E2E1"/>
            <route replacedOnEdge="F2E2" reason="taxi:idling:randomCircling" replacedAtTime="595.00" probability="0" edges="A2B2 B2B1 B1A1 A1A2 A2B2 B2C2 C2C1 C1C2 C2B2 B2B1 B1B0 B0C0 C0D0 D0D1 D1D2 D2D1 D1D0 D0C0 C0D0 D0D1 D1E1 E1E0 E0E1 E1D1 D1D0 D0D1 D1D0 D0D1 D1E1 E1E0 E0F0 F0F1 F1F2 F2E2 E2E1 E1E0"/>
            <route replacedOnEdge="F2E2" reason="taxi:idling:randomCircling" replacedAtTime="601.00" probability="0" edges="A2B2 B2B1 B1A1 A1A2 A2B2 B2C2 C2C1 C1C2 C2B2 B2B1 B1B0 B0C0 C0D0 D0D1 D1D2 D2D1 D1D0 D0C0 C0D0 D0D1 D1E1 E1E0 E0E1 E1D1 D1D0 D0D1 D1D0 D0D1 D1E1 E1E0 E0F0 F0F1 F1F2 F2E2 E2E1 E1E0 E0E1"/>
            <route replacedOnEdge="E2E1" reason="taxi:idling:randomCircling" replacedAtTime="611.00" probability="0" edges="A2B2 B2B1 B1A1 A1A2 A2B2 B2C2 C2C1 C1C2 C2B2 B2B1 B1B0 B0C0 C0D0 D0D1 D1D2 D2D1 D1D0 D0C0 C0D0 D0D1 D1E1 E1E0 E0E1 E1D1 D1D0 D0D1 D1D0 D0D1 D1E1 E1E0 E0F0 F0F1 F1F2 F2E2 E2E1 E1E0 E0E1 E1E0"/>
            <route replacedOnEdge="E1E0" reason="taxi:idling:randomCircling" replacedAtTime="618.00" probability="0" edges="A2B2 B2B1 B1A1 A1A2 A2B2 B2C2 C2C1 C1C2 C2B2 B2B1 B1B0 B0C0 C0D0 D0D1 D1D2 D2D1 D1D0 D0C0 C0D0 D0D1 D1E1 E1E0 E0E1 E1D1 D1D0 D0D1 D1D0 D0D1 D1E1 E1E0 E0F0 F0F1 F1F2 F2E2 E2E1 E1E0 E0E1 E1E0 E0D0"/>
            <route replacedOnEdge="E0D0" reason="taxi:idling:randomCircling" replacedAtTime="645.00" probability="0" edges="A2B2 B2B1 B1A1 A1A2 A2B2 B2C2 C2C1 C1C2 C2B2 B2B1 B1B0 B0C0 C0D0 D0D1 D1D2 D2D1 D1D0 D0C0 C0D0 D0D1 D1E1 E1E0 E0E1 E1D1 D1D0 D0D1 D1D0 D0D1 D1E1 E1E0 E0F0 F0F1 F1F2 F2E2 E2E1 E1E0 E0E1 E1E0 E0D0 D0C0"/>
            <route replacedOnEdge="D0C0" reason="taxi:idling:randomCircling" replacedAtTime="668.00" probability="0" edges="A2B2 B2B1 B1A1 A1A2 A2B2 B2C2 C2C1 C1C2 C2B2 B2B1 B1B0 B0C0 C0D0 D0D1 D1D2 D2D1 D1D0 D0C0 C0D0 D0D1 D1E1 E1E0 E0E1 E1D1 D1D0 D0D1 D1D0 D0D1 D1E1 E1E0 E0F0 F0F1 F1F2 F2E2 E2E1 E1E0 E0E1 E1E0 E0D0 D0C0 C0B0"/>
            <route replacedOnEdge="C0B0" reason="taxi:idling:randomCircling" replacedAtTime="689.00" probability="0" edges="A2B2 B2B1 B1A1 A1A2 A2B2 B2C2 C2C1 C1C2 C2B2 B2B1 B1B0 B0C0 C0D0 D0D1 D1D2 D2D1 D1D0 D0C0 C0D0 D0D1 D1E1 E1E0 E0E1 E1D1 D1D0 D0D1 D1D0 D0D1 D1E1 E1E0 E0F0 F0F1 F1F2 F2E2 E2E1 E1E0 E0E1 E1E0 E0D0 D0C0 C0B0 B0B1"/>
            <route replacedOnEdge="C0B0" reason="taxi:idling:randomCircling" replacedAtTime="702.00" probability="0" edges="A2B2 B2B1 B1A1 A1A2 A2B2 B2C2 C2C1 C1C2 C2B2 B2B1 B1B0 B0C0 C0D0 D0D1 D1D2 D2D1 D1D0 D0C0 C0D0 D0D1 D1E1 E1E0 E0E1 E1D1 D1D0 D0D1 D1D0 D0D1 D1E1 E1E0 E0F0 F0F1 F1F2 F2E2 E2E1 E1E0 E0E1 E1E0 E0D0 D0C0 C0B0 B0B1 B1C1"/>
            <route replacedOnEdge="B1C1" reason="taxi:idling:randomCircling" replacedAtTime="721.00" probability="0" edges="A2B2 B2B1 B1A1 A1A2 A2B2 B2C2 C2C1 C1C2 C2B2 B2B1 B1B0 B0C0 C0D0 D0D1 D1D2 D2D1 D1D0 D0C0 C0D0 D0D1 D1E1 E1E0 E0E1 E1D1 D1D0 D0D1 D1D0 D0D1 D1E1 E1E0 E0F0 F0F1 F1F2 F2E2 E2E1 E1E0 E0E1 E1E0 E0D0 D0C0 C0B0 B0B1 B1C1 C1B1"/>
            <route replacedOnEdge="C1B1" reason="taxi:idling:randomCircling" replacedAtTime="746.00" probability="0" edges="A2B2 B2B1 B1A1 A1A2 A2B2 B2C2 C2C1 C1C2 C2B2 B2B1 B1B0 B0C0 C0D0 D0D1 D1D2 D2D1 D1D0 D0C0 C0D0 D0D1 D1E1 E1E0 E0E1 E1D1 D1D0 D0D1 D1D0 D0D1 D1E1 E1E0 E0F0 F0F1 F1F2 F2E2 E2E1 E1E0 E0E1 E1E0 E0D0 D0C0 C0B0 B0B1 B1C1 C1B1 B1B2"/>
            <route replacedOnEdge="C1B1" reason="taxi:idling:randomCircling" replacedAtTime="760.00" probability="0" edges="A2B2 B2B1 B1A1 A1A2 A2B2 B2C2 C2C1 C1C2 C2B2 B2B1 B1B0 B0C0 C0D0 D0D1 D1D2 D2D1 D1D0 D0C0 C0D0 D0D1 D1E1 E1E0 E0E1 E1D1 D1D0 D0D1 D1D0 D0D1 D1E1 E1E0 E0F0 F0F1 F1F2 F2E2 E2E1 E1E0 E0E1 E1E0 E0D0 D0C0 C0B0 B0B1 B1C1 C1B1 B1B2 B2A2"/>
            <route replacedOnEdge="B2A2" reason="taxi:idling:randomCircling" replacedAtTime="782.00" probability="0" edges="A2B2 B2B1 B1A1 A1A2 A2B2 B2C2 C2C1 C1C2 C2B2 B2B1 B1B0 B0C0 C0D0 D0D1 D1D2 D2D1 D1D0 D0C0 C0D0 D0D1 D1E1 E1E0 E0E1 E1D1 D1D0 D0D1 D1D0 D0D1 D1E1 E1E0 E0F0 F0F1 F1F2 F2E2 E2E1 E1E0 E0E1 E1E0 E0D0 D0C0 C0B0 B0B1 B1C1 C1B1 B1B2 B2A2 A2A1"/>
            <route replacedOnEdge="B2A2" reason="taxi:idling:randomCircling" replacedAtTime="796.00" probability="0" edges="A2B2 B2B1 B1A1 A1A2 A2B2 B2C2 C2C1 C1C2 C2B2 B2B1 B1B0 B0C0 C0D0 D0D1 D1D2 D2D1 D1D0 D0C0 C0D0 D0D1 D1E1 E1E0 E0E1 E1D1 D1D0 D0D1 D1D0 D0D1 D1E1 E1E0 E0F0 F0F1 F1F2 F2E2 E2E1 E1E0 E0E1 E1E0 E0D0 D0C0 C0B0 B0B1 B1C1 C1B1 B1B2 B2A2 A2A1 A1A0"/>
            <route replacedOnEdge="B2A2" reason="taxi:idling:randomCircling" replacedAtTime="802.00" probability="0" edges="A2B2 B2B1 B1A1 A1A2 A2B2 B2C2 C2C1 C1C2 C2B2 B2B1 B1B0 B0C0 C0D0 D0D1 D1D2 D2D1 D1D0 D0C0 C0D0 D0D1 D1E1 E1E0 E0E1 E1D1 D1D0 D0D1 D1D0 D0D1 D1E1 E1E0 E0F0 F0F1 F1F2 F2E2 E2E1 E1E0 E0E1 E1E0 E0D0 D0C0 C0B0 B0B1 B1C1 C1B1 B1B2 B2A2 A2A1 A1A0 A0B0"/>
            <route replacedOnEdge="A0B0" reason="taxi:idling:randomCircling" replacedAtTime="823.00" probability="0" edges="A2B2 B2B1 B1A1 A1A2 A2B2 B2C2 C2C1 C1C2 C2B2 B2B1 B1B0 B0C0 C0D0 D0D1 D1D2 D2D1 D1D0 D0C0 C0D0 D0D1 D1E1 E1E0 E0E1 E1D1 D1D0 D0D1 D1D0 D0D1 D1E1 E1E0 E0F0 F0F1 F1F2 F2E2 E2E1 E1E0 E0E1 E1E0 E0D0 D0C0 C0B0 B0B1 B1C1 C1B1 B1B2 B2A2 A2A1 A1A0 A0B0 B0C0"/>
            <route replacedOnEdge="B0C0" reason="taxi:idling:randomCircling" replacedAtTime="846.00" probability="0" edges="A2B2 B2B1 B1A1 A1A2 A2B2 B2C2 C2C1 C1C2 C2B2 B2B1 B1B0 B0C0 C0D0 D0D1 D1D2 D2D1 D1D0 D0C0 C0D0 D0D1 D1E1 E1E0 E0E1 E1D1 D1D0 D0D1 D1D0 D0D1 D1E1 E1E0 E0F0 F0F1 F1F2 F2E2 E2E1 E1E0 E0E1 E1E0 E0D0 D0C0 C0B0 B0B1 B1C1 C1B1 B1B2 B2A2 A2A1 A1A0 A0B0 B0C0 C0B0"/>
            <route replacedOnEdge="C0B0" reason="taxi:idling:randomCircling" replacedAtTime="870.00" probability="0" edges="A2B2 B2B1 B1A1 A1A2 A2B2 B2C2 C2C1 C1C2 C2B2 B2B1 B1B0 B0C0 C0D0 D0D1 D1D2 D2D1 D1D0 D0C0 C0D0 D0D1 D1E1 E1E0 E0E1 E1D1 D1D0 D0D1 D1D0 D0D1 D1E1 E1E0 E0F0 F0F1 F1F2 F2E2 E2E1 E1E0 E0E1 E1E0 E0D0 D0C0 C0B0 B0B1 B1C1 C1B1 B1B2 B2A2 A2A1 A1A0 A0B0 B0C0 C0B0 B0C0"/>
            <route replacedOnEdge="B0C0" reason="taxi:idling:randomCircling" replacedAtTime="895.00" probability="0" edges="A2B2 B2B1 B1A1 A1A2 A2B2 B2C2 C2C1 C1C2 C2B2 B2B1 B1B0 B0C0 C0D0 D0D1 D1D2 D2D1 D1D0 D0C0 C0D0 D0D1 D1E1 E1E0 E0E1 E1D1 D1D0 D0D1 D1D0 D0D1 D1E1 E1E0 E0F0 F0F1 F1F2 F2E2 E2E1 E1E0 E0E1 E1E0 E0D0 D0C0 C0B0 B0B1 B1C1 C1B1 B1B2 B2A2 A2A1 A1A0 A0B0 B0C0 C0B0 B0C0 C0C1"/>
            <route replacedOnEdge="B0C0" reason="taxi:idling:randomCircling" replacedAtTime="909.00" probability="0" edges="A2B2 B2B1 B1A1 A1A2 A2B2 B2C2 C2C1 C1C2 C2B2 B2B1 B1B0 B0C0 C0D0 D0D1 D1D2 D2D1 D1D0 D0C0 C0D0 D0D1 D1E1 E1E0 E0E1 E1D1 D1D0 D0D1 D1D0 D0D1 D1E1 E1E0 E0F0 F0F1 F1F2 F2E2 E2E1 E1E0 E0E1 E1E0 E0D0 D0C0 C0B0 B0B1 B1C1 C1B1 B1B2 B2A2 A2A1 A1A0 A0B0 B0C0 C0B0 B0C0 C0C1 C1D1"/>
            <route replacedOnEdge="C1D1" reason="taxi:idling:randomCircling" replacedAtTime="929.00" probability="0" edges="A2B2 B2B1 B1A1 A1A2 A2B2 B2C2 C2C1 C1C2 C2B2 B2B1 B1B0 B0C0 C0D0 D0D1 D1D2 D2D1 D1D0 D0C0 C0D0 D0D1 D1E1 E1E0 E0E1 E1D1 D1D0 D0D1 D1D0 D0D1 D1E1 E1E0 E0F0 F0F1 F1F2 F2E2 E2E1 E1E0 E0E1 E1E0 E0D0 D0C0 C0B0 B0B1 B1C1 C1B1 B1B2 B2A2 A2A1 A1A0 A0B0 B0C0 C0B0 B0C0 C0C1 C1D1 D1D2"/>
            <route replacedOnEdge="C1D1" reason="taxi:idling:randomCircling" replacedAtTime="943.00" probability="0" edges="A2B2 B2B1 B1A1 A1A2 A2B2 B2C2 C2C1 C1C2 C2B2 B2B1 B1B0 B0C0 C0D0 D0D1 D1D2 D2D1 D1D0 D0C0 C0D0 D0D1 D1E1 E1E0 E0E1 E1D1 D1D0 D0D1 D1D0 D0D1 D1E1 E1E0 E0F0 F0F1 F1F2 F2E2 E2E1 E1E0 E0E1 E1E0 E0D0 D0C0 C0B0 B0B1 B1C1 C1B1 B1B2 B2A2 A2A1 A1A0 A0B0 B0C0 C0B0 B0C0 C0C1 C1D1 D1D2 D2E2"/>
            <route replacedOnEdge="D2E2" reason="taxi:idling:randomCircling" replacedAtTime="963.00" probability="0" edges="A2B2 B2B1 B1A1 A1A2 A2B2 B2C2 C2C1 C1C2 C2B2 B2B1 B1B0 B0C0 C0D0 D0D1 D1D2 D2D1 D1D0 D0C0 C0D0 D0D1 D1E1 E1E0 E0E1 E1D1 D1D0 D0D1 D1D0 D0D1 D1E1 E1E0 E0F0 F0F1 F1F2 F2E2 E2E1 E1E0 E0E1 E1E0 E0D0 D0C0 C0B0 B0B1 B1C1 C1B1 B1B2 B2A2 A2A1 A1A0 A0B0 B0C0 C0B0 B0C0 C0C1 C1D1 D1D2 D2E2 E2E1"/>
            <route replacedOnEdge="D2E2" reason="taxi:idling:randomCircling" replacedAtTime="977.00" probability="0" edges="A2B2 B2B1 B1A1 A1A2 A2B2 B2C2 C2C1 C1C2 C2B2 B2B1 B1B0 B0C0 C0D0 D0D1 D1D2 D2D1 D1D0 D0C0 C0D0 D0D1 D1E1 E1E0 E0E1 E1D1 D1D0 D0D1 D1D0 D0D1 D1E1 E1E0 E0F0 F0F1 F1F2 F2E2 E2E1 E1E0 E0E1 E1E0 E0D0 D0C0 C0B0 B0B1 B1C1 C1B1 B1B2 B2A2 A2A1 A1A0 A0B0 B0C0 C0B0 B0C0 C0C1 C1D1 D1D2 D2E2 E2E1 E1E2"/>
            <route replacedOnEdge="D2E2" reason="taxi:idling:randomCircling" replacedAtTime="983.00" probability="0" edges="A2B2 B2B1 B1A1 A1A2 A2B2 B2C2 C2C1 C1C2 C2B2 B2B1 B1B0 B0C0 C0D0 D0D1 D1D2 D2D1 D1D0 D0C0 C0D0 D0D1 D1E1 E1E0 E0E1 E1D1 D1D0 D0D1 D1D0 D0D1 D1E1 E1E0 E0F0 F0F1 F1F2 F2E2 E2E1 E1E0 E0E1 E1E0 E0D0 D0C0 C0B0 B0B1 B1C1 C1B1 B1B2 B2A2 A2A1 A1A0 A0B0 B0C0 C0B0 B0C0 C0C1 C1D1 D1D2 D2E2 E2E1 E1E2 E2F2"/>
            <route edges="A2B2 B2B1 B1A1 A1A2 A2B2 B2C2 C2C1 C1C2 C2B2 B2B1 B1B0 B0C0 C0D0 D0D1 D1D2 D2D1 D1D0 D0C0 C0D0 D0D1 D1E1 E1E0 E0E1 E1D1 D1D0 D0D1 D1D0 D0D1 D1E1 E1E0 E0F0 F0F1 F1F2 F2E2 E2E1 E1E0 E0E1 E1E0 E0D0 D0C0 C0B0 B0B1 B1C1 C1B1 B1B2 B2A2 A2A1 A1A0 A0B0 B0C0 C0B0 B0C0 C0C1 C1D1 D1D2 D2E2 E2E1 E1E2 E2F2 F2F1"/>
        </routeDistribution>
        <stop lane="A2B2_1" permitted="p0" actType="pickup p0 (0)"/>
        <stop lane="B2C2_1" actType="dropOff p0 (0)"/>
    </vehicle>

</routes>
