<?xml version="1.0" encoding="UTF-8"?>

<!-- generated on Tue Oct 13 13:26:29 2020 by Eclipse SUMO sumo Version v1_7_0+0594-1f29e2c600
This data file and the accompanying materials
are made available under the terms of the Eclipse Public License v2.0
which accompanies this distribution, and is available at
http://www.eclipse.org/legal/epl-v20.html
SPDX-License-Identifier: EPL-2.0
<configuration xmlns:xsi="http://www.w3.org/2001/XMLSchema-instance" xsi:noNamespaceSchemaLocation="http://sumo.dlr.de/xsd/sumoConfiguration.xsd">

    <input>
        <net-file value="net.net.xml"/>
        <route-files value="input_routes.rou.xml"/>
    </input>

    <output>
        <write-license value="true"/>
        <netstate-dump value="rawdump.xml"/>
    </output>

    <time>
        <end value="51"/>
    </time>

    <processing>
        <default.speeddev value="0"/>
        <pedestrian.model value="nonInteracting"/>
    </processing>

    <report>
        <xml-validation value="never"/>
        <xml-validation.routes value="never"/>
        <duration-log.disable value="true"/>
        <no-step-log value="true"/>
    </report>

    <mesoscopic>
        <mesosim value="true"/>
        <meso-junction-control value="true"/>
    </mesoscopic>

</configuration>
-->

<netstate xmlns:xsi="http://www.w3.org/2001/XMLSchema-instance" xsi:noNamespaceSchemaLocation="http://sumo.dlr.de/xsd/netstate_file.xsd">
    <timestep time="0.00">
        <edge id="beg">
            <vehicle id="0" pos="0.00" speed="50.00"/>
        </edge>
    </timestep>
    <timestep time="1.00">
        <edge id="beg">
            <vehicle id="0" pos="0.00" speed="50.00"/>
        </edge>
    </timestep>
    <timestep time="2.00">
        <edge id="beg">
            <vehicle id="0" pos="98.05" speed="50.00"/>
        </edge>
    </timestep>
    <timestep time="3.00">
        <edge id="beg">
            <vehicle id="0" pos="98.05" speed="50.00"/>
        </edge>
    </timestep>
    <timestep time="4.00">
        <edge id="beg">
            <vehicle id="0" pos="196.09" speed="50.00"/>
        </edge>
    </timestep>
    <timestep time="5.00">
        <edge id="beg">
            <vehicle id="0" pos="196.09" speed="50.00"/>
        </edge>
    </timestep>
    <timestep time="6.00">
        <edge id="beg">
            <vehicle id="0" pos="294.14" speed="50.00"/>
        </edge>
    </timestep>
    <timestep time="7.00">
        <edge id="beg">
            <vehicle id="0" pos="294.14" speed="50.00"/>
        </edge>
    </timestep>
    <timestep time="8.00">
        <edge id="beg">
            <vehicle id="0" pos="392.19" speed="50.00"/>
        </edge>
    </timestep>
    <timestep time="9.00">
        <edge id="beg">
            <vehicle id="0" pos="392.19" speed="50.00"/>
        </edge>
    </timestep>
    <timestep time="10.00">
        <edge id="beg">
            <vehicle id="0" pos="490.23" speed="50.00"/>
        </edge>
    </timestep>
    <timestep time="11.00">
        <edge id="beg">
            <vehicle id="0" pos="490.23" speed="50.00"/>
        </edge>
    </timestep>
    <timestep time="12.00">
        <edge id="beg">
            <vehicle id="0" pos="588.28" speed="50.00"/>
        </edge>
    </timestep>
    <timestep time="13.00">
        <edge id="beg">
            <vehicle id="0" pos="588.28" speed="50.00"/>
        </edge>
    </timestep>
    <timestep time="14.00">
        <edge id="beg">
            <vehicle id="0" pos="686.33" speed="50.00"/>
        </edge>
    </timestep>
    <timestep time="15.00">
        <edge id="beg">
            <vehicle id="0" pos="686.33" speed="50.00"/>
        </edge>
    </timestep>
    <timestep time="16.00">
        <edge id="beg">
            <vehicle id="0" pos="784.38" speed="50.00"/>
        </edge>
    </timestep>
    <timestep time="17.00">
        <edge id="beg">
            <vehicle id="0" pos="784.38" speed="50.00"/>
        </edge>
    </timestep>
    <timestep time="18.00">
        <edge id="beg">
            <vehicle id="0" pos="882.42" speed="50.00"/>
        </edge>
    </timestep>
    <timestep time="19.00">
        <edge id="beg">
            <vehicle id="0" pos="882.42" speed="50.00"/>
        </edge>
    </timestep>
    <timestep time="20.00">
        <edge id="beg">
            <vehicle id="0" pos="980.47" speed="50.00"/>
        </edge>
    </timestep>
    <timestep time="21.00">
        <edge id="beg">
            <vehicle id="0" pos="980.47" speed="50.00"/>
        </edge>
    </timestep>
    <timestep time="22.00">
        <edge id="beg">
            <vehicle id="0" pos="1078.52" speed="50.00"/>
        </edge>
    </timestep>
    <timestep time="23.00">
        <edge id="beg">
            <vehicle id="0" pos="1078.52" speed="50.00"/>
        </edge>
    </timestep>
    <timestep time="24.00">
        <edge id="beg">
            <vehicle id="0" pos="1176.56" speed="50.00"/>
        </edge>
    </timestep>
    <timestep time="25.00">
        <edge id="beg">
            <vehicle id="0" pos="1176.56" speed="50.00"/>
        </edge>
    </timestep>
    <timestep time="26.00">
        <edge id="beg">
            <vehicle id="0" pos="1274.61" speed="50.00"/>
        </edge>
    </timestep>
    <timestep time="27.00">
        <edge id="beg">
            <vehicle id="0" pos="1274.61" speed="50.00"/>
        </edge>
    </timestep>
    <timestep time="28.00">
        <edge id="beg">
            <vehicle id="0" pos="1372.66" speed="50.00"/>
        </edge>
    </timestep>
    <timestep time="29.00">
        <edge id="beg">
            <vehicle id="0" pos="1372.66" speed="50.00"/>
        </edge>
    </timestep>
    <timestep time="30.00">
        <edge id="beg">
            <vehicle id="0" pos="1470.70" speed="50.00"/>
        </edge>
    </timestep>
    <timestep time="31.00">
        <edge id="beg">
            <vehicle id="0" pos="1470.70" speed="50.00"/>
        </edge>
    </timestep>
    <timestep time="32.00">
        <edge id="beg">
            <vehicle id="0" pos="1568.75" speed="50.00"/>
        </edge>
    </timestep>
    <timestep time="33.00">
        <edge id="beg">
            <vehicle id="0" pos="1568.75" speed="50.00"/>
        </edge>
    </timestep>
    <timestep time="34.00">
        <edge id="beg">
            <vehicle id="0" pos="1666.80" speed="50.00"/>
        </edge>
    </timestep>
    <timestep time="35.00">
        <edge id="beg">
            <vehicle id="0" pos="1666.80" speed="50.00"/>
        </edge>
    </timestep>
    <timestep time="36.00">
        <edge id="beg">
            <vehicle id="0" pos="1764.84" speed="50.00"/>
        </edge>
    </timestep>
    <timestep time="37.00">
        <edge id="beg">
            <vehicle id="0" pos="1764.84" speed="50.00"/>
        </edge>
    </timestep>
    <timestep time="38.00">
        <edge id="beg">
            <vehicle id="0" pos="1862.89" speed="50.00"/>
        </edge>
    </timestep>
    <timestep time="39.00">
        <edge id="beg">
            <vehicle id="0" pos="1862.89" speed="50.00"/>
        </edge>
    </timestep>
    <timestep time="40.00">
        <edge id="beg">
            <vehicle id="0" pos="1960.94" speed="50.00"/>
        </edge>
    </timestep>
    <timestep time="41.00">
        <edge id="beg">
            <vehicle id="0" pos="1960.94" speed="50.00"/>
        </edge>
    </timestep>
    <timestep time="42.00">
        <edge id="beg">
            <vehicle id="0" pos="2058.99" speed="50.00"/>
        </edge>
    </timestep>
    <timestep time="43.00">
        <edge id="beg">
            <vehicle id="0" pos="2058.99" speed="50.00"/>
        </edge>
    </timestep>
    <timestep time="44.00">
        <edge id="beg">
            <vehicle id="0" pos="2157.03" speed="50.00"/>
        </edge>
    </timestep>
    <timestep time="45.00">
        <edge id="beg">
            <vehicle id="0" pos="2157.03" speed="50.00"/>
        </edge>
    </timestep>
    <timestep time="46.00">
        <edge id="beg">
            <vehicle id="0" pos="2255.08" speed="50.00"/>
        </edge>
    </timestep>
    <timestep time="47.00">
        <edge id="beg">
            <vehicle id="0" pos="2255.08" speed="50.00"/>
        </edge>
    </timestep>
    <timestep time="48.00">
        <edge id="beg">
            <vehicle id="0" pos="2353.13" speed="50.00"/>
        </edge>
    </timestep>
    <timestep time="49.00">
        <edge id="beg">
            <vehicle id="0" pos="2353.13" speed="50.00"/>
        </edge>
    </timestep>
    <timestep time="50.00">
        <edge id="beg">
            <vehicle id="0" pos="2451.17" speed="50.00"/>
        </edge>
    </timestep>
</netstate>
