<?xml version="1.0"?>

<!-- generated on 12/18/12 09:33:29 by SUMO sumo Version dev-SVN-r13169
<?xml version="1.0" encoding="UTF-8"?>

<configuration xmlns:xsi="http://www.w3.org/2001/XMLSchema-instance" xsi:noNamespaceSchemaLocation="http://sumo.sf.net/xsd/sumoConfiguration.xsd">

    <input>
        <net-file value="net.net.xml"/>
        <route-files value="routes.rou.xml"/>
    </input>

    <output>
        <netstate-dump value="netstate_dump.xml"/>
    </output>

    <report>
        <no-step-log value="true"/>
    </report>

    <traci_server>
        <remote-port value="8835"/>
    </traci_server>

</configuration>
-->

<sumo-netstate>
    <timestep time="0.00"/>
    <timestep time="1.00"/>
    <timestep time="2.00"/>
</sumo-netstate>
