<?xml version="1.0"?>

<!-- generated on 10/21/09 17:55:49 by SUMO sumo Version dev-SVN-r7871
<configuration>

    <input>
        <net-file value="three_split.net.xml"/>
        <additional-files value="input_routes.rou.xml,input_additional.add.xml"/>
    </input>

    <output>
        <vehroute-output value="vehroutes.xml"/>
    </output>

    <report>
        <no-duration-log value="true"/>
        <no-step-log value="true"/>
    </report>

    <mesoscopic>
        <mesosim value="true"/>
    </mesoscopic>

</configuration>
-->

<routes>
    <vehicle id="0" depart="0" arrival="124">
        <replacedRoute replacedOnEdge="beg" replacedAtTime="0" edges="beg middle end rend"/>
        <route edges="beg beg2left left left2end"/>
   </vehicle>

    <vehicle id="1" depart="20" arrival="144">
        <replacedRoute replacedOnEdge="beg" replacedAtTime="20" edges="beg middle end rend"/>
        <route edges="beg beg2left left left2end"/>
   </vehicle>

    <vehicle id="2" depart="40" arrival="164">
        <replacedRoute replacedOnEdge="beg" replacedAtTime="40" edges="beg middle end rend"/>
        <route edges="beg beg2left left left2end"/>
   </vehicle>

    <vehicle id="3" depart="60" arrival="184">
        <replacedRoute replacedOnEdge="beg" replacedAtTime="60" edges="beg middle end rend"/>
        <route edges="beg beg2left left left2end"/>
   </vehicle>

    <vehicle id="4" depart="80" arrival="204">
        <replacedRoute replacedOnEdge="beg" replacedAtTime="80" edges="beg middle end rend"/>
        <route edges="beg beg2left left left2end"/>
   </vehicle>

    <vehicle id="5" depart="100" arrival="224">
        <replacedRoute replacedOnEdge="beg" replacedAtTime="100" edges="beg middle end rend"/>
        <route edges="beg beg2left left left2end"/>
   </vehicle>

    <vehicle id="6" depart="120" arrival="244">
        <replacedRoute replacedOnEdge="beg" replacedAtTime="120" edges="beg middle end rend"/>
        <route edges="beg beg2left left left2end"/>
   </vehicle>

    <vehicle id="7" depart="140" arrival="264">
        <replacedRoute replacedOnEdge="beg" replacedAtTime="140" edges="beg middle end rend"/>
        <route edges="beg beg2left left left2end"/>
   </vehicle>

    <vehicle id="8" depart="160" arrival="284">
        <replacedRoute replacedOnEdge="beg" replacedAtTime="160" edges="beg middle end rend"/>
        <route edges="beg beg2left left left2end"/>
   </vehicle>

    <vehicle id="9" depart="180" arrival="304">
        <replacedRoute replacedOnEdge="beg" replacedAtTime="180" edges="beg middle end rend"/>
        <route edges="beg beg2left left left2end"/>
   </vehicle>

</routes>
