<?xml version="1.0" encoding="UTF-8"?>

<!-- generated on Mon Mar 30 15:09:54 2020 by Eclipse SUMO Version v1_5_0+1011-3e02c63d25
This data file and the accompanying materials
are made available under the terms of the Eclipse Public License v2.0
which accompanies this distribution, and is available at
http://www.eclipse.org/legal/epl-v20.html
SPDX-License-Identifier: EPL-2.0
<configuration xmlns:xsi="http://www.w3.org/2001/XMLSchema-instance" xsi:noNamespaceSchemaLocation="http://sumo.dlr.de/xsd/sumoConfiguration.xsd">

    <input>
        <net-file value="net.net.xml"/>
        <route-files value="input_routes.rou.xml"/>
    </input>

    <output>
        <write-license value="true"/>
        <tripinfo-output value="tripinfos.xml"/>
    </output>

    <processing>
        <lateral-resolution value="0.8"/>
        <default.speeddev value="0"/>
    </processing>

    <report>
        <xml-validation value="never"/>
        <no-step-log value="true"/>
    </report>

</configuration>
-->

<tripinfos xmlns:xsi="http://www.w3.org/2001/XMLSchema-instance" xsi:noNamespaceSchemaLocation="http://sumo.dlr.de/xsd/tripinfo_file.xsd">
    <tripinfo id="cars.0" depart="0.00" departLane="beg_0" departPos="99.90" departPosLat="1.80" departSpeed="0.00" departDelay="0.00" arrival="11.00" arrivalLane="end_0" arrivalPos="100.00" arrivalPosLat="0.00" arrivalSpeed="15.37" duration="11.00" routeLength="100.10" waitingTime="0.00" waitingCount="0" stopTime="0.00" timeLoss="3.72" rerouteNo="0" devices="tripinfo_cars.0" vType="car" speedFactor="1.12" vaporized=""/>
    <tripinfo id="cars.2" depart="1.00" departLane="beg_0" departPos="86.14" departPosLat="-2.09" departSpeed="0.00" departDelay="0.80" arrival="13.00" arrivalLane="end_0" arrivalPos="100.00" arrivalPosLat="0.00" arrivalSpeed="13.22" duration="12.00" routeLength="113.86" waitingTime="0.00" waitingCount="0" stopTime="0.00" timeLoss="3.17" rerouteNo="0" devices="tripinfo_cars.2" vType="car" speedFactor="1.02" vaporized=""/>
    <tripinfo id="cars.1" depart="1.00" departLane="beg_0" departPos="93.74" departPosLat="0.98" departSpeed="0.00" departDelay="0.90" arrival="14.00" arrivalLane="end_0" arrivalPos="100.00" arrivalPosLat="0.00" arrivalSpeed="11.39" duration="13.00" routeLength="106.26" waitingTime="1.00" waitingCount="1" stopTime="0.00" timeLoss="4.01" rerouteNo="0" devices="tripinfo_cars.1" vType="car" speedFactor="0.88" vaporized=""/>
    <tripinfo id="cars.3" depart="1.00" departLane="beg_0" departPos="78.54" departPosLat="-0.04" departSpeed="0.00" departDelay="0.70" arrival="16.00" arrivalLane="end_0" arrivalPos="100.00" arrivalPosLat="0.00" arrivalSpeed="14.87" duration="15.00" routeLength="121.46" waitingTime="1.00" waitingCount="1" stopTime="0.00" timeLoss="6.89" rerouteNo="0" devices="tripinfo_cars.3" vType="car" speedFactor="1.17" vaporized=""/>
    <tripinfo id="cars.4" depart="1.00" departLane="beg_0" departPos="70.94" departPosLat="0.41" departSpeed="0.00" departDelay="0.60" arrival="17.00" arrivalLane="end_0" arrivalPos="100.00" arrivalPosLat="0.00" arrivalSpeed="14.48" duration="16.00" routeLength="129.06" waitingTime="2.00" waitingCount="1" stopTime="0.00" timeLoss="7.24" rerouteNo="0" devices="tripinfo_cars.4" vType="car" speedFactor="1.06" vaporized=""/>
    <tripinfo id="cars.6" depart="1.00" departLane="beg_0" departPos="55.74" departPosLat="1.12" departSpeed="0.00" departDelay="0.40" arrival="19.00" arrivalLane="end_0" arrivalPos="100.00" arrivalPosLat="0.70" arrivalSpeed="14.79" duration="18.00" routeLength="144.26" waitingTime="0.00" waitingCount="0" stopTime="0.00" timeLoss="8.19" rerouteNo="0" devices="tripinfo_cars.6" vType="car" speedFactor="1.09" vaporized=""/>
    <tripinfo id="cars.5" depart="1.00" departLane="beg_0" departPos="63.34" departPosLat="-2.10" departSpeed="0.00" departDelay="0.50" arrival="21.00" arrivalLane="end_0" arrivalPos="100.00" arrivalPosLat="-1.70" arrivalSpeed="8.36" duration="20.00" routeLength="136.66" waitingTime="0.00" waitingCount="0" stopTime="0.00" timeLoss="4.29" rerouteNo="0" devices="tripinfo_cars.5" vType="car" speedFactor="0.66" vaporized=""/>
    <tripinfo id="cars.7" depart="1.00" departLane="beg_0" departPos="48.14" departPosLat="-1.16" departSpeed="0.00" departDelay="0.30" arrival="22.00" arrivalLane="end_0" arrivalPos="100.00" arrivalPosLat="-0.90" arrivalSpeed="9.65" duration="21.00" routeLength="151.86" waitingTime="0.00" waitingCount="0" stopTime="0.00" timeLoss="6.80" rerouteNo="0" devices="tripinfo_cars.7" vType="car" speedFactor="0.77" vaporized=""/>
    <tripinfo id="cars.8" depart="1.00" departLane="beg_0" departPos="40.54" departPosLat="0.21" departSpeed="0.00" departDelay="0.20" arrival="22.00" arrivalLane="end_0" arrivalPos="100.00" arrivalPosLat="0.90" arrivalSpeed="10.90" duration="21.00" routeLength="159.46" waitingTime="1.00" waitingCount="1" stopTime="0.00" timeLoss="7.13" rerouteNo="0" devices="tripinfo_cars.8" vType="car" speedFactor="0.88" vaporized=""/>
    <tripinfo id="cars.9" depart="1.00" departLane="beg_0" departPos="32.94" departPosLat="1.13" departSpeed="0.00" departDelay="0.10" arrival="25.00" arrivalLane="end_0" arrivalPos="100.00" arrivalPosLat="0.00" arrivalSpeed="9.04" duration="24.00" routeLength="167.06" waitingTime="2.00" waitingCount="1" stopTime="0.00" timeLoss="7.15" rerouteNo="0" devices="tripinfo_cars.9" vType="car" speedFactor="0.71" vaporized=""/>
</tripinfos>
