<?xml version="1.0" encoding="UTF-8"?>

<!-- generated on 2022-01-12 19:21:08 by Eclipse SUMO sumo Version v1_11_0+1069-06aa8edcea7
This data file and the accompanying materials
are made available under the terms of the Eclipse Public License v2.0
which accompanies this distribution, and is available at
http://www.eclipse.org/legal/epl-v20.html
SPDX-License-Identifier: EPL-2.0
<configuration xmlns:xsi="http://www.w3.org/2001/XMLSchema-instance" xsi:noNamespaceSchemaLocation="http://sumo.dlr.de/xsd/sumoConfiguration.xsd">

    <input>
        <net-file value="net.net.xml"/>
        <route-files value="input_routes.rou.xml"/>
        <additional-files value="input_additional.add.xml,input_additional2.add.xml"/>
    </input>

    <output>
        <write-license value="true"/>
        <tripinfo-output.write-unfinished value="true"/>
    </output>

    <time>
        <begin value="0"/>
        <end value="3000"/>
    </time>

    <processing>
        <default.speeddev value="0"/>
    </processing>

    <report>
        <verbose value="true"/>
        <xml-validation value="never"/>
        <xml-validation.routes value="never"/>
        <duration-log.statistics value="true"/>
        <no-step-log value="true"/>
    </report>

</configuration>
-->

<meandata xmlns:xsi="http://www.w3.org/2001/XMLSchema-instance" xsi:noNamespaceSchemaLocation="http://sumo.dlr.de/xsd/meandata_file.xsd">
    <interval begin="0.00" end="60.00" id="dump_60">
        <edge id="1/1to2/1" sampledSeconds="957.33" traveltime="248.17" overlapTraveltime="242.99" density="16.28" laneDensity="16.28" occupancy="8.10" waitingTime="571.00" timeLoss="759.36" speed="4.05" speedRelative="0.21" departed="60" arrived="0" entered="0" left="29" laneChangedFrom="0" laneChangedTo="0"/>
        <edge id="2/1to3/1" sampledSeconds="810.72" traveltime="51.15" overlapTraveltime="51.41" density="13.79" laneDensity="13.79" occupancy="6.85" waitingTime="0.00" timeLoss="24.97" speed="19.16" speedRelative="0.98" departed="0" arrived="0" entered="29" left="2" laneChangedFrom="0" laneChangedTo="0"/>
        <edge id="3/1to4/1" sampledSeconds="6.33" traveltime="50.04" overlapTraveltime="50.30" density="0.11" laneDensity="0.11" occupancy="0.05" waitingTime="0.00" timeLoss="0.04" speed="19.58" speedRelative="1.00" departed="0" arrived="0" entered="2" left="0" laneChangedFrom="0" laneChangedTo="0"/>
    </interval>
    <interval begin="60.00" end="120.00" id="dump_60">
        <edge id="1/1to2/1" sampledSeconds="2647.72" traveltime="202.53" overlapTraveltime="201.61" density="45.03" laneDensity="45.03" occupancy="22.48" waitingTime="1770.00" timeLoss="1989.54" speed="4.89" speedRelative="0.25" departed="60" arrived="0" entered="0" left="33" laneChangedFrom="0" laneChangedTo="0"/>
        <edge id="2/1to3/1" sampledSeconds="1629.88" traveltime="50.45" overlapTraveltime="50.71" density="27.72" laneDensity="27.72" occupancy="13.79" waitingTime="0.00" timeLoss="24.40" speed="19.42" speedRelative="0.99" departed="0" arrived="0" entered="33" left="33" laneChangedFrom="0" laneChangedTo="0"/>
        <edge id="3/1to4/1" sampledSeconds="1048.01" traveltime="50.24" overlapTraveltime="50.50" density="17.82" laneDensity="17.82" occupancy="8.87" waitingTime="0.00" timeLoss="13.46" speed="19.50" speedRelative="1.00" departed="0" arrived="0" entered="32" left="7" laneChangedFrom="0" laneChangedTo="0"/>
        <edge id="4/1to5/1" sampledSeconds="51.71" traveltime="50.62" overlapTraveltime="50.88" density="0.88" laneDensity="0.88" occupancy="0.43" waitingTime="0.00" timeLoss="0.86" speed="19.36" speedRelative="0.99" departed="0" arrived="0" entered="7" left="0" laneChangedFrom="0" laneChangedTo="0"/>
    </interval>
    <interval begin="120.00" end="180.00" id="dump_60">
        <edge id="1/1to2/1" sampledSeconds="3493.68" traveltime="156.32" overlapTraveltime="156.35" density="59.42" laneDensity="59.42" occupancy="29.41" waitingTime="2150.00" timeLoss="2376.29" speed="6.30" speedRelative="0.32" departed="19" arrived="0" entered="0" left="32" laneChangedFrom="0" laneChangedTo="0"/>
        <edge id="2/1to3/1" sampledSeconds="1632.96" traveltime="50.44" overlapTraveltime="50.70" density="27.77" laneDensity="27.77" occupancy="13.82" waitingTime="0.00" timeLoss="24.20" speed="19.43" speedRelative="0.99" departed="0" arrived="0" entered="32" left="32" laneChangedFrom="0" laneChangedTo="0"/>
        <edge id="3/1to4/1" sampledSeconds="1627.01" traveltime="50.48" overlapTraveltime="50.74" density="27.67" laneDensity="27.67" occupancy="13.76" waitingTime="0.00" timeLoss="25.16" speed="19.41" speedRelative="0.99" departed="0" arrived="0" entered="33" left="32" laneChangedFrom="0" laneChangedTo="0"/>
        <edge id="4/1to5/1" sampledSeconds="1267.67" traveltime="50.59" overlapTraveltime="50.85" density="21.56" laneDensity="21.56" occupancy="10.73" waitingTime="0.00" timeLoss="21.74" speed="19.37" speedRelative="0.99" departed="0" arrived="0" entered="32" left="12" laneChangedFrom="0" laneChangedTo="0"/>
        <edge id="5/1to6/1" sampledSeconds="139.75" traveltime="50.69" overlapTraveltime="50.95" density="2.38" laneDensity="2.38" occupancy="1.18" waitingTime="0.00" timeLoss="2.54" speed="19.33" speedRelative="0.99" departed="0" arrived="0" entered="12" left="0" laneChangedFrom="0" laneChangedTo="0"/>
    </interval>
    <interval begin="180.00" end="240.00" id="dump_60">
        <edge id="1/1to2/1" sampledSeconds="1906.78" traveltime="65.13" overlapTraveltime="65.38" density="32.43" laneDensity="32.43" occupancy="15.93" waitingTime="281.00" timeLoss="449.55" speed="15.06" speedRelative="0.77" departed="10" arrived="0" entered="0" left="32" laneChangedFrom="0" laneChangedTo="0"/>
        <edge id="2/1to3/1" sampledSeconds="1631.60" traveltime="50.50" overlapTraveltime="50.76" density="27.75" laneDensity="27.75" occupancy="13.81" waitingTime="0.00" timeLoss="25.76" speed="19.40" speedRelative="0.99" departed="0" arrived="0" entered="32" left="31" laneChangedFrom="0" laneChangedTo="0"/>
        <edge id="3/1to4/1" sampledSeconds="1635.27" traveltime="50.45" overlapTraveltime="50.71" density="27.81" laneDensity="27.81" occupancy="13.84" waitingTime="0.00" timeLoss="24.24" speed="19.42" speedRelative="0.99" departed="0" arrived="0" entered="31" left="32" laneChangedFrom="0" laneChangedTo="0"/>
        <edge id="4/1to5/1" sampledSeconds="1620.34" traveltime="50.48" overlapTraveltime="50.74" density="27.56" laneDensity="27.56" occupancy="13.71" waitingTime="0.00" timeLoss="25.34" speed="19.41" speedRelative="0.99" departed="0" arrived="0" entered="32" left="32" laneChangedFrom="0" laneChangedTo="0"/>
        <edge id="5/1to6/1" sampledSeconds="1436.89" traveltime="50.57" overlapTraveltime="50.83" density="24.44" laneDensity="24.44" occupancy="12.16" waitingTime="0.00" timeLoss="24.24" speed="19.38" speedRelative="0.99" departed="0" arrived="0" entered="32" left="17" laneChangedFrom="0" laneChangedTo="0"/>
        <edge id="6/1to7/1" sampledSeconds="273.82" traveltime="50.42" overlapTraveltime="50.68" density="4.66" laneDensity="4.66" occupancy="2.31" waitingTime="0.00" timeLoss="4.23" speed="19.43" speedRelative="0.99" departed="0" arrived="0" entered="17" left="0" laneChangedFrom="0" laneChangedTo="0"/>
    </interval>
    <interval begin="240.00" end="300.00" id="dump_60">
        <edge id="1/1to2/1" sampledSeconds="1136.01" traveltime="55.05" overlapTraveltime="55.30" density="19.32" laneDensity="19.32" occupancy="9.53" waitingTime="19.00" timeLoss="109.91" speed="17.81" speedRelative="0.91" departed="20" arrived="0" entered="0" left="25" laneChangedFrom="0" laneChangedTo="0"/>
        <edge id="2/1to3/1" sampledSeconds="1491.54" traveltime="50.23" overlapTraveltime="50.49" density="25.37" laneDensity="25.37" occupancy="12.62" waitingTime="0.00" timeLoss="17.67" speed="19.51" speedRelative="1.00" departed="0" arrived="0" entered="25" left="33" laneChangedFrom="0" laneChangedTo="0"/>
        <edge id="3/1to4/1" sampledSeconds="1626.71" traveltime="50.33" overlapTraveltime="50.59" density="27.67" laneDensity="27.67" occupancy="13.76" waitingTime="0.00" timeLoss="22.89" speed="19.47" speedRelative="0.99" departed="0" arrived="0" entered="33" left="33" laneChangedFrom="0" laneChangedTo="0"/>
        <edge id="4/1to5/1" sampledSeconds="1644.44" traveltime="50.34" overlapTraveltime="50.60" density="27.97" laneDensity="27.97" occupancy="13.91" waitingTime="0.00" timeLoss="23.24" speed="19.46" speedRelative="0.99" departed="0" arrived="0" entered="33" left="33" laneChangedFrom="0" laneChangedTo="0"/>
        <edge id="5/1to6/1" sampledSeconds="1611.37" traveltime="50.43" overlapTraveltime="50.68" density="27.41" laneDensity="27.41" occupancy="13.63" waitingTime="0.00" timeLoss="23.62" speed="19.43" speedRelative="0.99" departed="0" arrived="0" entered="33" left="33" laneChangedFrom="0" laneChangedTo="0"/>
        <edge id="6/1to7/1" sampledSeconds="1560.54" traveltime="50.44" overlapTraveltime="50.69" density="26.54" laneDensity="26.54" occupancy="13.21" waitingTime="0.00" timeLoss="23.74" speed="19.43" speedRelative="0.99" departed="0" arrived="0" entered="33" left="23" laneChangedFrom="0" laneChangedTo="0"/>
        <edge id="7/1to8/1" sampledSeconds="459.71" traveltime="50.78" overlapTraveltime="51.04" density="7.82" laneDensity="7.82" occupancy="3.88" waitingTime="0.00" timeLoss="9.80" speed="19.30" speedRelative="0.98" departed="0" arrived="0" entered="23" left="0" laneChangedFrom="0" laneChangedTo="0"/>
    </interval>
    <interval begin="300.00" end="360.00" id="dump_60">
        <edge id="1/1to2/1" sampledSeconds="1076.73" traveltime="55.11" overlapTraveltime="55.37" density="18.31" laneDensity="18.31" occupancy="9.02" waitingTime="20.00" timeLoss="108.32" speed="17.79" speedRelative="0.91" departed="19" arrived="0" entered="0" left="19" laneChangedFrom="0" laneChangedTo="0"/>
        <edge id="2/1to3/1" sampledSeconds="997.95" traveltime="50.07" overlapTraveltime="50.33" density="16.97" laneDensity="16.97" occupancy="8.44" waitingTime="0.00" timeLoss="12.16" speed="19.57" speedRelative="1.00" departed="0" arrived="0" entered="19" left="22" laneChangedFrom="0" laneChangedTo="0"/>
        <edge id="3/1to4/1" sampledSeconds="1415.84" traveltime="50.26" overlapTraveltime="50.52" density="24.08" laneDensity="24.08" occupancy="11.98" waitingTime="0.00" timeLoss="18.78" speed="19.50" speedRelative="0.99" departed="0" arrived="0" entered="22" left="33" laneChangedFrom="0" laneChangedTo="0"/>
        <edge id="4/1to5/1" sampledSeconds="1625.73" traveltime="50.42" overlapTraveltime="50.68" density="27.65" laneDensity="27.65" occupancy="13.76" waitingTime="0.00" timeLoss="26.09" speed="19.43" speedRelative="0.99" departed="0" arrived="0" entered="32" left="31" laneChangedFrom="0" laneChangedTo="0"/>
        <edge id="5/1to6/1" sampledSeconds="1653.50" traveltime="50.47" overlapTraveltime="50.73" density="28.12" laneDensity="28.12" occupancy="13.99" waitingTime="0.00" timeLoss="27.10" speed="19.42" speedRelative="0.99" departed="0" arrived="0" entered="31" left="32" laneChangedFrom="0" laneChangedTo="0"/>
        <edge id="6/1to7/1" sampledSeconds="1612.40" traveltime="50.72" overlapTraveltime="50.98" density="27.42" laneDensity="27.42" occupancy="13.64" waitingTime="0.00" timeLoss="30.34" speed="19.32" speedRelative="0.99" departed="0" arrived="0" entered="32" left="30" laneChangedFrom="0" laneChangedTo="0"/>
        <edge id="7/1to8/1" sampledSeconds="1622.91" traveltime="50.38" overlapTraveltime="50.64" density="27.60" laneDensity="27.60" occupancy="13.74" waitingTime="0.00" timeLoss="22.04" speed="19.45" speedRelative="0.99" departed="0" arrived="0" entered="30" left="28" laneChangedFrom="0" laneChangedTo="0"/>
        <edge id="8/1to9/1" sampledSeconds="693.15" traveltime="50.44" overlapTraveltime="50.70" density="11.79" laneDensity="11.79" occupancy="5.86" waitingTime="0.00" timeLoss="10.46" speed="19.43" speedRelative="0.99" departed="0" arrived="0" entered="28" left="1" laneChangedFrom="0" laneChangedTo="0"/>
        <edge id="9/1to10/1" sampledSeconds="1.66" traveltime="48.93" overlapTraveltime="49.18" density="0.03" laneDensity="0.03" occupancy="0.01" waitingTime="0.00" timeLoss="0.00" speed="20.03" speedRelative="1.02" departed="0" arrived="0" entered="1" left="0" laneChangedFrom="0" laneChangedTo="0"/>
    </interval>
    <interval begin="360.00" end="420.00" id="dump_60">
        <edge id="1/1to2/1" sampledSeconds="1087.35" traveltime="54.92" overlapTraveltime="55.18" density="18.49" laneDensity="18.49" occupancy="9.12" waitingTime="19.00" timeLoss="105.50" speed="17.85" speedRelative="0.91" departed="20" arrived="0" entered="0" left="20" laneChangedFrom="0" laneChangedTo="0"/>
        <edge id="10/1to1/1" sampledSeconds="28.01" traveltime="50.06" overlapTraveltime="50.31" density="0.48" laneDensity="0.48" occupancy="0.23" waitingTime="0.00" timeLoss="0.27" speed="19.58" speedRelative="1.00" departed="0" arrived="0" entered="5" left="0" laneChangedFrom="0" laneChangedTo="0"/>
        <edge id="2/1to3/1" sampledSeconds="989.61" traveltime="50.23" overlapTraveltime="50.49" density="16.83" laneDensity="16.83" occupancy="8.37" waitingTime="0.00" timeLoss="12.43" speed="19.51" speedRelative="1.00" departed="0" arrived="0" entered="20" left="19" laneChangedFrom="0" laneChangedTo="0"/>
        <edge id="3/1to4/1" sampledSeconds="980.48" traveltime="50.50" overlapTraveltime="50.76" density="16.68" laneDensity="16.68" occupancy="8.29" waitingTime="0.00" timeLoss="15.63" speed="19.40" speedRelative="0.99" departed="0" arrived="0" entered="19" left="20" laneChangedFrom="0" laneChangedTo="0"/>
        <edge id="4/1to5/1" sampledSeconds="1320.22" traveltime="50.59" overlapTraveltime="50.85" density="22.45" laneDensity="22.45" occupancy="11.17" waitingTime="0.00" timeLoss="22.73" speed="19.37" speedRelative="0.99" departed="0" arrived="0" entered="21" left="33" laneChangedFrom="0" laneChangedTo="0"/>
        <edge id="5/1to6/1" sampledSeconds="1630.94" traveltime="50.57" overlapTraveltime="50.83" density="27.74" laneDensity="27.74" occupancy="13.80" waitingTime="0.00" timeLoss="26.93" speed="19.38" speedRelative="0.99" departed="0" arrived="0" entered="33" left="32" laneChangedFrom="0" laneChangedTo="0"/>
        <edge id="6/1to7/1" sampledSeconds="1653.13" traveltime="50.55" overlapTraveltime="50.80" density="28.12" laneDensity="28.12" occupancy="13.99" waitingTime="0.00" timeLoss="27.69" speed="19.39" speedRelative="0.99" departed="0" arrived="0" entered="31" left="34" laneChangedFrom="0" laneChangedTo="0"/>
        <edge id="7/1to8/1" sampledSeconds="1618.36" traveltime="50.53" overlapTraveltime="50.78" density="27.52" laneDensity="27.52" occupancy="13.69" waitingTime="0.00" timeLoss="25.09" speed="19.39" speedRelative="0.99" departed="0" arrived="0" entered="34" left="31" laneChangedFrom="0" laneChangedTo="0"/>
        <edge id="8/1to9/1" sampledSeconds="1634.73" traveltime="50.50" overlapTraveltime="50.76" density="27.80" laneDensity="27.80" occupancy="13.83" waitingTime="0.00" timeLoss="24.87" speed="19.41" speedRelative="0.99" departed="0" arrived="0" entered="31" left="32" laneChangedFrom="0" laneChangedTo="0"/>
        <edge id="9/1to10/1" sampledSeconds="946.20" traveltime="50.21" overlapTraveltime="50.47" density="16.09" laneDensity="16.09" occupancy="8.01" waitingTime="0.00" timeLoss="12.20" speed="19.52" speedRelative="1.00" departed="0" arrived="0" entered="32" left="5" laneChangedFrom="0" laneChangedTo="0"/>
    </interval>
    <interval begin="420.00" end="480.00" id="dump_60">
        <edge id="1/1to2/1" sampledSeconds="1100.93" traveltime="53.73" overlapTraveltime="53.99" density="18.72" laneDensity="18.72" occupancy="9.25" waitingTime="14.00" timeLoss="85.57" speed="18.24" speedRelative="0.93" departed="13" arrived="0" entered="9" left="19" laneChangedFrom="0" laneChangedTo="0"/>
        <edge id="10/1to1/1" sampledSeconds="1180.88" traveltime="50.38" overlapTraveltime="50.66" density="20.08" laneDensity="20.08" occupancy="9.99" waitingTime="0.00" timeLoss="18.02" speed="19.44" speedRelative="0.99" departed="0" arrived="0" entered="33" left="9" laneChangedFrom="0" laneChangedTo="0"/>
        <edge id="2/1to3/1" sampledSeconds="991.74" traveltime="50.11" overlapTraveltime="50.36" density="16.87" laneDensity="16.87" occupancy="8.39" waitingTime="0.00" timeLoss="10.89" speed="19.56" speedRelative="1.00" departed="0" arrived="0" entered="19" left="21" laneChangedFrom="0" laneChangedTo="0"/>
        <edge id="3/1to4/1" sampledSeconds="997.39" traveltime="50.09" overlapTraveltime="50.35" density="16.96" laneDensity="16.96" occupancy="8.44" waitingTime="0.00" timeLoss="12.11" speed="19.56" speedRelative="1.00" departed="0" arrived="0" entered="21" left="19" laneChangedFrom="0" laneChangedTo="0"/>
        <edge id="4/1to5/1" sampledSeconds="979.57" traveltime="50.14" overlapTraveltime="50.40" density="16.66" laneDensity="16.66" occupancy="8.29" waitingTime="0.00" timeLoss="12.46" speed="19.54" speedRelative="1.00" departed="0" arrived="0" entered="19" left="18" laneChangedFrom="0" laneChangedTo="0"/>
        <edge id="5/1to6/1" sampledSeconds="1215.60" traveltime="50.32" overlapTraveltime="50.58" density="20.67" laneDensity="20.67" occupancy="10.28" waitingTime="0.00" timeLoss="17.05" speed="19.47" speedRelative="0.99" departed="0" arrived="0" entered="18" left="29" laneChangedFrom="0" laneChangedTo="0"/>
        <edge id="6/1to7/1" sampledSeconds="1624.00" traveltime="50.84" overlapTraveltime="51.10" density="27.62" laneDensity="27.62" occupancy="13.74" waitingTime="0.00" timeLoss="32.72" speed="19.28" speedRelative="0.98" departed="0" arrived="0" entered="30" left="32" laneChangedFrom="0" laneChangedTo="0"/>
        <edge id="7/1to8/1" sampledSeconds="1636.69" traveltime="50.55" overlapTraveltime="50.81" density="27.84" laneDensity="27.84" occupancy="13.85" waitingTime="0.00" timeLoss="25.89" speed="19.39" speedRelative="0.99" departed="0" arrived="0" entered="32" left="34" laneChangedFrom="0" laneChangedTo="0"/>
        <edge id="8/1to9/1" sampledSeconds="1635.27" traveltime="50.49" overlapTraveltime="50.75" density="27.81" laneDensity="27.81" occupancy="13.83" waitingTime="0.00" timeLoss="26.03" speed="19.41" speedRelative="0.99" departed="0" arrived="0" entered="34" left="31" laneChangedFrom="0" laneChangedTo="0"/>
        <edge id="9/1to10/1" sampledSeconds="1625.14" traveltime="50.39" overlapTraveltime="50.65" density="27.64" laneDensity="27.64" occupancy="13.75" waitingTime="0.00" timeLoss="24.63" speed="19.45" speedRelative="0.99" departed="0" arrived="0" entered="31" left="33" laneChangedFrom="0" laneChangedTo="0"/>
    </interval>
    <interval begin="480.00" end="540.00" id="dump_60">
        <edge id="1/1to2/1" sampledSeconds="1622.20" traveltime="51.42" overlapTraveltime="51.68" density="27.59" laneDensity="27.59" occupancy="13.70" waitingTime="1.00" timeLoss="55.55" speed="19.06" speedRelative="0.97" departed="1" arrived="0" entered="34" left="26" laneChangedFrom="0" laneChangedTo="0"/>
        <edge id="10/1to1/1" sampledSeconds="1639.41" traveltime="51.27" overlapTraveltime="51.62" density="27.88" laneDensity="27.88" occupancy="13.86" waitingTime="0.00" timeLoss="49.04" speed="19.08" speedRelative="0.97" departed="0" arrived="0" entered="32" left="34" laneChangedFrom="0" laneChangedTo="0"/>
        <edge id="2/1to3/1" sampledSeconds="1076.61" traveltime="50.24" overlapTraveltime="50.50" density="18.31" laneDensity="18.31" occupancy="9.11" waitingTime="0.00" timeLoss="13.39" speed="19.50" speedRelative="1.00" departed="0" arrived="0" entered="25" left="19" laneChangedFrom="0" laneChangedTo="0"/>
        <edge id="3/1to4/1" sampledSeconds="985.04" traveltime="50.11" overlapTraveltime="50.37" density="16.75" laneDensity="16.75" occupancy="8.33" waitingTime="0.00" timeLoss="10.54" speed="19.56" speedRelative="1.00" departed="0" arrived="0" entered="19" left="20" laneChangedFrom="0" laneChangedTo="0"/>
        <edge id="4/1to5/1" sampledSeconds="1002.08" traveltime="50.17" overlapTraveltime="50.43" density="17.04" laneDensity="17.04" occupancy="8.48" waitingTime="0.00" timeLoss="12.49" speed="19.53" speedRelative="1.00" departed="0" arrived="0" entered="20" left="20" laneChangedFrom="0" laneChangedTo="0"/>
        <edge id="5/1to6/1" sampledSeconds="981.64" traveltime="50.03" overlapTraveltime="50.29" density="16.70" laneDensity="16.70" occupancy="8.30" waitingTime="0.00" timeLoss="11.10" speed="19.58" speedRelative="1.00" departed="0" arrived="0" entered="20" left="20" laneChangedFrom="0" laneChangedTo="0"/>
        <edge id="6/1to7/1" sampledSeconds="1148.09" traveltime="50.52" overlapTraveltime="50.78" density="19.53" laneDensity="19.53" occupancy="9.71" waitingTime="0.00" timeLoss="18.97" speed="19.40" speedRelative="0.99" departed="0" arrived="0" entered="20" left="27" laneChangedFrom="0" laneChangedTo="0"/>
        <edge id="7/1to8/1" sampledSeconds="1586.51" traveltime="50.46" overlapTraveltime="50.72" density="26.98" laneDensity="26.98" occupancy="13.43" waitingTime="0.00" timeLoss="23.23" speed="19.42" speedRelative="0.99" departed="0" arrived="0" entered="27" left="31" laneChangedFrom="0" laneChangedTo="0"/>
        <edge id="8/1to9/1" sampledSeconds="1614.04" traveltime="50.50" overlapTraveltime="50.76" density="27.45" laneDensity="27.45" occupancy="13.66" waitingTime="0.00" timeLoss="25.61" speed="19.40" speedRelative="0.99" departed="0" arrived="0" entered="31" left="33" laneChangedFrom="0" laneChangedTo="0"/>
        <edge id="9/1to10/1" sampledSeconds="1650.10" traveltime="50.41" overlapTraveltime="50.66" density="28.06" laneDensity="28.06" occupancy="13.96" waitingTime="0.00" timeLoss="23.49" speed="19.44" speedRelative="0.99" departed="0" arrived="0" entered="33" left="32" laneChangedFrom="0" laneChangedTo="0"/>
    </interval>
    <interval begin="540.00" end="600.00" id="dump_60">
        <edge id="1/1to2/1" sampledSeconds="1737.43" traveltime="51.79" overlapTraveltime="52.05" density="29.55" laneDensity="29.55" occupancy="14.69" waitingTime="3.00" timeLoss="69.68" speed="18.92" speedRelative="0.97" departed="2" arrived="0" entered="32" left="34" laneChangedFrom="0" laneChangedTo="0"/>
        <edge id="10/1to1/1" sampledSeconds="1686.89" traveltime="51.11" overlapTraveltime="51.45" density="28.69" laneDensity="28.69" occupancy="14.26" waitingTime="0.00" timeLoss="48.12" speed="19.14" speedRelative="0.98" departed="0" arrived="0" entered="32" left="32" laneChangedFrom="0" laneChangedTo="0"/>
        <edge id="2/1to3/1" sampledSeconds="1666.28" traveltime="50.60" overlapTraveltime="50.86" density="28.34" laneDensity="28.34" occupancy="14.10" waitingTime="0.00" timeLoss="28.19" speed="19.37" speedRelative="0.99" departed="0" arrived="0" entered="35" left="28" laneChangedFrom="0" laneChangedTo="0"/>
        <edge id="3/1to4/1" sampledSeconds="1146.29" traveltime="50.32" overlapTraveltime="50.58" density="19.50" laneDensity="19.50" occupancy="9.70" waitingTime="0.00" timeLoss="15.88" speed="19.47" speedRelative="0.99" departed="0" arrived="0" entered="28" left="19" laneChangedFrom="0" laneChangedTo="0"/>
        <edge id="4/1to5/1" sampledSeconds="975.84" traveltime="50.21" overlapTraveltime="50.47" density="16.60" laneDensity="16.60" occupancy="8.26" waitingTime="0.00" timeLoss="14.21" speed="19.51" speedRelative="1.00" departed="0" arrived="0" entered="19" left="20" laneChangedFrom="0" laneChangedTo="0"/>
        <edge id="5/1to6/1" sampledSeconds="1001.27" traveltime="50.13" overlapTraveltime="50.39" density="17.03" laneDensity="17.03" occupancy="8.47" waitingTime="0.00" timeLoss="11.16" speed="19.55" speedRelative="1.00" departed="0" arrived="0" entered="20" left="20" laneChangedFrom="0" laneChangedTo="0"/>
        <edge id="6/1to7/1" sampledSeconds="981.76" traveltime="50.22" overlapTraveltime="50.48" density="16.70" laneDensity="16.70" occupancy="8.30" waitingTime="0.00" timeLoss="12.47" speed="19.51" speedRelative="1.00" departed="0" arrived="0" entered="20" left="20" laneChangedFrom="0" laneChangedTo="0"/>
        <edge id="7/1to8/1" sampledSeconds="1088.10" traveltime="50.23" overlapTraveltime="50.49" density="18.51" laneDensity="18.51" occupancy="9.20" waitingTime="0.00" timeLoss="14.17" speed="19.51" speedRelative="1.00" departed="0" arrived="0" entered="20" left="26" laneChangedFrom="0" laneChangedTo="0"/>
        <edge id="8/1to9/1" sampledSeconds="1549.29" traveltime="50.43" overlapTraveltime="50.68" density="26.35" laneDensity="26.35" occupancy="13.11" waitingTime="0.00" timeLoss="22.58" speed="19.43" speedRelative="0.99" departed="0" arrived="0" entered="26" left="32" laneChangedFrom="0" laneChangedTo="0"/>
        <edge id="9/1to10/1" sampledSeconds="1600.74" traveltime="50.70" overlapTraveltime="50.96" density="27.23" laneDensity="27.23" occupancy="13.54" waitingTime="0.00" timeLoss="29.66" speed="19.33" speedRelative="0.99" departed="0" arrived="0" entered="32" left="32" laneChangedFrom="0" laneChangedTo="0"/>
    </interval>
    <interval begin="600.00" end="660.00" id="dump_60">
        <edge id="1/1to2/1" sampledSeconds="1753.28" traveltime="50.84" overlapTraveltime="51.10" density="29.82" laneDensity="29.82" occupancy="14.82" waitingTime="1.00" timeLoss="36.76" speed="19.28" speedRelative="0.98" departed="1" arrived="0" entered="31" left="35" laneChangedFrom="0" laneChangedTo="0"/>
        <edge id="10/1to1/1" sampledSeconds="1600.96" traveltime="50.86" overlapTraveltime="51.13" density="27.23" laneDensity="27.23" occupancy="13.54" waitingTime="0.00" timeLoss="35.42" speed="19.26" speedRelative="0.98" departed="0" arrived="0" entered="31" left="31" laneChangedFrom="0" laneChangedTo="0"/>
        <edge id="2/1to3/1" sampledSeconds="1697.85" traveltime="50.66" overlapTraveltime="50.92" density="28.88" laneDensity="28.88" occupancy="14.36" waitingTime="0.00" timeLoss="30.17" speed="19.34" speedRelative="0.99" departed="0" arrived="0" entered="35" left="34" laneChangedFrom="0" laneChangedTo="0"/>
        <edge id="3/1to4/1" sampledSeconds="1708.96" traveltime="50.82" overlapTraveltime="51.08" density="29.07" laneDensity="29.07" occupancy="14.46" waitingTime="0.00" timeLoss="33.35" speed="19.28" speedRelative="0.98" departed="0" arrived="0" entered="34" left="31" laneChangedFrom="0" laneChangedTo="0"/>
        <edge id="4/1to5/1" sampledSeconds="1232.94" traveltime="50.21" overlapTraveltime="50.47" density="20.97" laneDensity="20.97" occupancy="10.43" waitingTime="0.00" timeLoss="16.45" speed="19.52" speedRelative="1.00" departed="0" arrived="0" entered="31" left="20" laneChangedFrom="0" laneChangedTo="0"/>
        <edge id="5/1to6/1" sampledSeconds="977.80" traveltime="50.32" overlapTraveltime="50.58" density="16.63" laneDensity="16.63" occupancy="8.27" waitingTime="0.00" timeLoss="14.19" speed="19.47" speedRelative="0.99" departed="0" arrived="0" entered="20" left="20" laneChangedFrom="0" laneChangedTo="0"/>
        <edge id="6/1to7/1" sampledSeconds="1000.74" traveltime="50.35" overlapTraveltime="50.61" density="17.02" laneDensity="17.02" occupancy="8.47" waitingTime="0.00" timeLoss="13.60" speed="19.46" speedRelative="0.99" departed="0" arrived="0" entered="20" left="20" laneChangedFrom="0" laneChangedTo="0"/>
        <edge id="7/1to8/1" sampledSeconds="975.82" traveltime="49.96" overlapTraveltime="50.22" density="16.60" laneDensity="16.60" occupancy="8.26" waitingTime="0.00" timeLoss="9.39" speed="19.61" speedRelative="1.00" departed="0" arrived="0" entered="20" left="19" laneChangedFrom="0" laneChangedTo="0"/>
        <edge id="8/1to9/1" sampledSeconds="1040.33" traveltime="50.46" overlapTraveltime="50.72" density="17.69" laneDensity="17.69" occupancy="8.80" waitingTime="0.00" timeLoss="16.67" speed="19.42" speedRelative="0.99" departed="0" arrived="0" entered="19" left="24" laneChangedFrom="0" laneChangedTo="0"/>
        <edge id="9/1to10/1" sampledSeconds="1495.30" traveltime="50.44" overlapTraveltime="50.70" density="25.43" laneDensity="25.43" occupancy="12.66" waitingTime="0.00" timeLoss="22.40" speed="19.43" speedRelative="0.99" departed="0" arrived="0" entered="24" left="32" laneChangedFrom="0" laneChangedTo="0"/>
    </interval>
    <interval begin="660.00" end="720.00" id="dump_60">
        <edge id="1/1to2/1" sampledSeconds="1650.12" traveltime="50.38" overlapTraveltime="50.64" density="28.07" laneDensity="28.07" occupancy="13.96" waitingTime="0.00" timeLoss="22.54" speed="19.45" speedRelative="0.99" departed="0" arrived="0" entered="33" left="32" laneChangedFrom="0" laneChangedTo="0"/>
        <edge id="10/1to1/1" sampledSeconds="1419.99" traveltime="50.29" overlapTraveltime="50.55" density="24.15" laneDensity="24.15" occupancy="12.01" waitingTime="0.00" timeLoss="19.01" speed="19.49" speedRelative="0.99" departed="0" arrived="0" entered="23" left="33" laneChangedFrom="0" laneChangedTo="0"/>
        <edge id="2/1to3/1" sampledSeconds="1724.70" traveltime="50.59" overlapTraveltime="50.85" density="29.33" laneDensity="29.33" occupancy="14.59" waitingTime="0.00" timeLoss="29.43" speed="19.37" speedRelative="0.99" departed="0" arrived="0" entered="32" left="35" laneChangedFrom="0" laneChangedTo="0"/>
        <edge id="3/1to4/1" sampledSeconds="1722.89" traveltime="50.52" overlapTraveltime="50.78" density="29.30" laneDensity="29.30" occupancy="14.58" waitingTime="0.00" timeLoss="28.70" speed="19.40" speedRelative="0.99" departed="0" arrived="0" entered="35" left="32" laneChangedFrom="0" laneChangedTo="0"/>
        <edge id="4/1to5/1" sampledSeconds="1700.08" traveltime="50.44" overlapTraveltime="50.70" density="28.91" laneDensity="28.91" occupancy="14.39" waitingTime="0.00" timeLoss="25.78" speed="19.43" speedRelative="0.99" departed="0" arrived="0" entered="32" left="33" laneChangedFrom="0" laneChangedTo="0"/>