<?xml version="1.0" encoding="UTF-8"?>

<!-- generated on 2022-07-04 15:44:33 by Eclipse SUMO sumo Version v1_13_0+1101-e8aafb3c787
This data file and the accompanying materials
are made available under the terms of the Eclipse Public License v2.0
which accompanies this distribution, and is available at
http://www.eclipse.org/legal/epl-v20.html
This file may also be made available under the following Secondary
Licenses when the conditions for such availability set forth in the Eclipse
Public License 2.0 are satisfied: GNU General Public License, version 2
or later which is available at
https://www.gnu.org/licenses/old-licenses/gpl-2.0-standalone.html
SPDX-License-Identifier: EPL-2.0 OR GPL-2.0-or-later
<configuration xmlns:xsi="http://www.w3.org/2001/XMLSchema-instance" xsi:noNamespaceSchemaLocation="http://sumo.dlr.de/xsd/sumoConfiguration.xsd">

    <input>
        <net-file value="net.net.xml"/>
        <route-files value="input_routes.rou.xml"/>
        <additional-files value="input_additional.add.xml,input_additional2.add.xml"/>
    </input>

    <output>
        <write-license value="true"/>
        <tripinfo-output.write-unfinished value="true"/>
    </output>

    <time>
        <begin value="0"/>
        <end value="3000"/>
    </time>

    <processing>
        <default.speeddev value="0"/>
    </processing>

    <report>
        <xml-validation value="never"/>
        <duration-log.statistics value="true"/>
        <no-step-log value="true"/>
    </report>

</configuration>
-->

<meandata xmlns:xsi="http://www.w3.org/2001/XMLSchema-instance" xsi:noNamespaceSchemaLocation="http://sumo.dlr.de/xsd/meandata_file.xsd">
    <interval begin="0.00" end="60.00" id="dump_60">
        <edge id="1/1to2/1" sampledSeconds="970.76" traveltime="257.92" overlapTraveltime="252.24" density="16.51" laneDensity="16.51" occupancy="8.21" waitingTime="590.00" timeLoss="777.37" speed="3.90" speedRelative="0.20" departed="60" arrived="0" entered="0" left="29" laneChangedFrom="0" laneChangedTo="0"/>
        <edge id="2/1to3/1" sampledSeconds="797.30" traveltime="50.97" overlapTraveltime="51.23" density="13.56" laneDensity="13.56" occupancy="6.73" waitingTime="0.00" timeLoss="15.27" speed="19.22" speedRelative="0.98" departed="0" arrived="0" entered="29" left="2" laneChangedFrom="0" laneChangedTo="0"/>
        <edge id="3/1to4/1" sampledSeconds="6.24" traveltime="50.03" overlapTraveltime="50.28" density="0.11" laneDensity="0.11" occupancy="0.05" waitingTime="0.00" timeLoss="0.00" speed="19.59" speedRelative="1.00" departed="0" arrived="0" entered="2" left="0" laneChangedFrom="0" laneChangedTo="0"/>
    </interval>
    <interval begin="60.00" end="120.00" id="dump_60">
        <edge id="1/1to2/1" sampledSeconds="2664.93" traveltime="205.66" overlapTraveltime="204.76" density="45.32" laneDensity="45.32" occupancy="22.63" waitingTime="1790.00" timeLoss="2010.89" speed="4.81" speedRelative="0.25" departed="60" arrived="0" entered="0" left="32" laneChangedFrom="0" laneChangedTo="0"/>
        <edge id="2/1to3/1" sampledSeconds="1617.94" traveltime="50.00" overlapTraveltime="50.26" density="27.52" laneDensity="27.52" occupancy="13.69" waitingTime="0.00" timeLoss="0.15" speed="19.60" speedRelative="1.00" departed="0" arrived="0" entered="32" left="32" laneChangedFrom="0" laneChangedTo="0"/>
        <edge id="3/1to4/1" sampledSeconds="1040.80" traveltime="50.02" overlapTraveltime="50.27" density="17.70" laneDensity="17.70" occupancy="8.81" waitingTime="0.00" timeLoss="0.46" speed="19.59" speedRelative="1.00" departed="0" arrived="0" entered="32" left="7" laneChangedFrom="0" laneChangedTo="0"/>
        <edge id="4/1to5/1" sampledSeconds="53.48" traveltime="50.11" overlapTraveltime="50.37" density="0.91" laneDensity="0.91" occupancy="0.45" waitingTime="0.00" timeLoss="0.12" speed="19.56" speedRelative="1.00" departed="0" arrived="0" entered="7" left="0" laneChangedFrom="0" laneChangedTo="0"/>
    </interval>
    <interval begin="120.00" end="180.00" id="dump_60">
        <edge id="1/1to2/1" sampledSeconds="3511.91" traveltime="157.43" overlapTraveltime="157.44" density="59.73" laneDensity="59.73" occupancy="29.57" waitingTime="2170.00" timeLoss="2390.94" speed="6.26" speedRelative="0.32" departed="19" arrived="0" entered="0" left="33" laneChangedFrom="0" laneChangedTo="0"/>
        <edge id="2/1to3/1" sampledSeconds="1619.09" traveltime="50.00" overlapTraveltime="50.25" density="27.54" laneDensity="27.54" occupancy="13.70" waitingTime="0.00" timeLoss="0.00" speed="19.60" speedRelative="1.00" departed="0" arrived="0" entered="32" left="33" laneChangedFrom="0" laneChangedTo="0"/>
        <edge id="3/1to4/1" sampledSeconds="1619.07" traveltime="50.00" overlapTraveltime="50.25" density="27.54" laneDensity="27.54" occupancy="13.70" waitingTime="0.00" timeLoss="0.08" speed="19.60" speedRelative="1.00" departed="0" arrived="0" entered="33" left="33" laneChangedFrom="0" laneChangedTo="0"/>
        <edge id="4/1to5/1" sampledSeconds="1259.54" traveltime="50.02" overlapTraveltime="50.28" density="21.42" laneDensity="21.42" occupancy="10.66" waitingTime="0.00" timeLoss="0.66" speed="19.59" speedRelative="1.00" departed="0" arrived="0" entered="33" left="13" laneChangedFrom="0" laneChangedTo="0"/>
        <edge id="5/1to6/1" sampledSeconds="151.53" traveltime="50.08" overlapTraveltime="50.34" density="2.58" laneDensity="2.58" occupancy="1.27" waitingTime="0.00" timeLoss="0.26" speed="19.57" speedRelative="1.00" departed="0" arrived="0" entered="13" left="0" laneChangedFrom="0" laneChangedTo="0"/>
    </interval>
    <interval begin="180.00" end="240.00" id="dump_60">
        <edge id="1/1to2/1" sampledSeconds="1904.61" traveltime="65.28" overlapTraveltime="65.53" density="32.39" laneDensity="32.39" occupancy="15.90" waitingTime="289.00" timeLoss="444.03" speed="15.03" speedRelative="0.77" departed="9" arrived="0" entered="0" left="32" laneChangedFrom="0" laneChangedTo="0"/>
        <edge id="2/1to3/1" sampledSeconds="1619.05" traveltime="50.00" overlapTraveltime="50.25" density="27.54" laneDensity="27.54" occupancy="13.70" waitingTime="0.00" timeLoss="0.00" speed="19.60" speedRelative="1.00" departed="0" arrived="0" entered="33" left="32" laneChangedFrom="0" laneChangedTo="0"/>
        <edge id="3/1to4/1" sampledSeconds="1619.09" traveltime="50.00" overlapTraveltime="50.25" density="27.54" laneDensity="27.54" occupancy="13.70" waitingTime="0.00" timeLoss="0.00" speed="19.60" speedRelative="1.00" departed="0" arrived="0" entered="32" left="32" laneChangedFrom="0" laneChangedTo="0"/>
        <edge id="4/1to5/1" sampledSeconds="1619.10" traveltime="50.00" overlapTraveltime="50.25" density="27.54" laneDensity="27.54" occupancy="13.70" waitingTime="0.00" timeLoss="0.02" speed="19.60" speedRelative="1.00" departed="0" arrived="0" entered="32" left="32" laneChangedFrom="0" laneChangedTo="0"/>
        <edge id="5/1to6/1" sampledSeconds="1427.21" traveltime="50.01" overlapTraveltime="50.27" density="24.27" laneDensity="24.27" occupancy="12.08" waitingTime="0.00" timeLoss="0.48" speed="19.59" speedRelative="1.00" departed="0" arrived="0" entered="32" left="18" laneChangedFrom="0" laneChangedTo="0"/>
        <edge id="6/1to7/1" sampledSeconds="301.76" traveltime="50.02" overlapTraveltime="50.27" density="5.13" laneDensity="5.13" occupancy="2.55" waitingTime="0.00" timeLoss="0.13" speed="19.59" speedRelative="1.00" departed="0" arrived="0" entered="18" left="0" laneChangedFrom="0" laneChangedTo="0"/>
    </interval>
    <interval begin="240.00" end="300.00" id="dump_60">
        <edge id="1/1to2/1" sampledSeconds="1057.56" traveltime="54.92" overlapTraveltime="55.17" density="17.99" laneDensity="17.99" occupancy="8.85" waitingTime="18.00" timeLoss="94.31" speed="17.85" speedRelative="0.91" departed="18" arrived="0" entered="0" left="23" laneChangedFrom="0" laneChangedTo="0"/>
        <edge id="2/1to3/1" sampledSeconds="1467.00" traveltime="50.00" overlapTraveltime="50.25" density="24.95" laneDensity="24.95" occupancy="12.42" waitingTime="0.00" timeLoss="0.00" speed="19.60" speedRelative="1.00" departed="0" arrived="0" entered="23" left="32" laneChangedFrom="0" laneChangedTo="0"/>
        <edge id="3/1to4/1" sampledSeconds="1619.09" traveltime="50.00" overlapTraveltime="50.25" density="27.54" laneDensity="27.54" occupancy="13.70" waitingTime="0.00" timeLoss="0.00" speed="19.60" speedRelative="1.00" departed="0" arrived="0" entered="32" left="32" laneChangedFrom="0" laneChangedTo="0"/>
        <edge id="4/1to5/1" sampledSeconds="1619.09" traveltime="50.00" overlapTraveltime="50.25" density="27.54" laneDensity="27.54" occupancy="13.70" waitingTime="0.00" timeLoss="0.00" speed="19.60" speedRelative="1.00" departed="0" arrived="0" entered="32" left="32" laneChangedFrom="0" laneChangedTo="0"/>
        <edge id="5/1to6/1" sampledSeconds="1619.09" traveltime="50.00" overlapTraveltime="50.25" density="27.54" laneDensity="27.54" occupancy="13.70" waitingTime="0.00" timeLoss="0.00" speed="19.60" speedRelative="1.00" departed="0" arrived="0" entered="32" left="32" laneChangedFrom="0" laneChangedTo="0"/>
        <edge id="6/1to7/1" sampledSeconds="1542.76" traveltime="50.02" overlapTraveltime="50.27" density="26.24" laneDensity="26.24" occupancy="13.06" waitingTime="0.00" timeLoss="0.62" speed="19.59" speedRelative="1.00" departed="0" arrived="0" entered="32" left="23" laneChangedFrom="0" laneChangedTo="0"/>
        <edge id="7/1to8/1" sampledSeconds="503.92" traveltime="50.02" overlapTraveltime="50.28" density="8.57" laneDensity="8.57" occupancy="4.26" waitingTime="0.00" timeLoss="0.26" speed="19.59" speedRelative="1.00" departed="0" arrived="0" entered="23" left="0" laneChangedFrom="0" laneChangedTo="0"/>
    </interval>
    <interval begin="300.00" end="360.00" id="dump_60">
        <edge id="1/1to2/1" sampledSeconds="984.41" traveltime="55.29" overlapTraveltime="55.55" density="16.74" laneDensity="16.74" occupancy="8.24" waitingTime="17.00" timeLoss="93.87" speed="17.73" speedRelative="0.90" departed="18" arrived="0" entered="0" left="18" laneChangedFrom="0" laneChangedTo="0"/>
        <edge id="2/1to3/1" sampledSeconds="919.60" traveltime="50.00" overlapTraveltime="50.25" density="15.64" laneDensity="15.64" occupancy="7.78" waitingTime="0.00" timeLoss="0.00" speed="19.60" speedRelative="1.00" departed="0" arrived="0" entered="18" left="21" laneChangedFrom="0" laneChangedTo="0"/>
        <edge id="3/1to4/1" sampledSeconds="1370.97" traveltime="50.00" overlapTraveltime="50.25" density="23.32" laneDensity="23.32" occupancy="11.60" waitingTime="0.00" timeLoss="0.00" speed="19.60" speedRelative="1.00" departed="0" arrived="0" entered="21" left="32" laneChangedFrom="0" laneChangedTo="0"/>
        <edge id="4/1to5/1" sampledSeconds="1619.09" traveltime="50.00" overlapTraveltime="50.25" density="27.54" laneDensity="27.54" occupancy="13.70" waitingTime="0.00" timeLoss="0.00" speed="19.60" speedRelative="1.00" departed="0" arrived="0" entered="32" left="32" laneChangedFrom="0" laneChangedTo="0"/>
        <edge id="5/1to6/1" sampledSeconds="1619.09" traveltime="50.00" overlapTraveltime="50.25" density="27.54" laneDensity="27.54" occupancy="13.70" waitingTime="0.00" timeLoss="0.00" speed="19.60" speedRelative="1.00" departed="0" arrived="0" entered="32" left="32" laneChangedFrom="0" laneChangedTo="0"/>
        <edge id="6/1to7/1" sampledSeconds="1619.09" traveltime="50.00" overlapTraveltime="50.25" density="27.54" laneDensity="27.54" occupancy="13.70" waitingTime="0.00" timeLoss="0.00" speed="19.60" speedRelative="1.00" departed="0" arrived="0" entered="32" left="33" laneChangedFrom="0" laneChangedTo="0"/>
        <edge id="7/1to8/1" sampledSeconds="1606.42" traveltime="50.01" overlapTraveltime="50.27" density="27.32" laneDensity="27.32" occupancy="13.59" waitingTime="0.00" timeLoss="0.55" speed="19.59" speedRelative="1.00" departed="0" arrived="0" entered="32" left="29" laneChangedFrom="0" laneChangedTo="0"/>
        <edge id="8/1to9/1" sampledSeconds="754.49" traveltime="50.03" overlapTraveltime="50.29" density="12.83" laneDensity="12.83" occupancy="6.38" waitingTime="0.00" timeLoss="0.52" speed="19.59" speedRelative="1.00" departed="0" arrived="0" entered="29" left="2" laneChangedFrom="0" laneChangedTo="0"/>
        <edge id="9/1to10/1" sampledSeconds="3.75" traveltime="50.13" overlapTraveltime="50.39" density="0.06" laneDensity="0.06" occupancy="0.03" waitingTime="0.00" timeLoss="0.01" speed="19.55" speedRelative="1.00" departed="0" arrived="0" entered="2" left="0" laneChangedFrom="0" laneChangedTo="0"/>
    </interval>
    <interval begin="360.00" end="420.00" id="dump_60">
        <edge id="1/1to2/1" sampledSeconds="985.58" traveltime="55.38" overlapTraveltime="55.64" density="16.76" laneDensity="16.76" occupancy="8.24" waitingTime="18.00" timeLoss="95.41" speed="17.70" speedRelative="0.90" departed="17" arrived="0" entered="0" left="18" laneChangedFrom="0" laneChangedTo="0"/>
        <edge id="10/1to1/1" sampledSeconds="44.74" traveltime="50.11" overlapTraveltime="50.36" density="0.76" laneDensity="0.76" occupancy="0.37" waitingTime="0.00" timeLoss="0.10" speed="19.56" speedRelative="1.00" departed="0" arrived="0" entered="7" left="0" laneChangedFrom="0" laneChangedTo="0"/>
        <edge id="2/1to3/1" sampledSeconds="893.44" traveltime="50.00" overlapTraveltime="50.25" density="15.20" laneDensity="15.20" occupancy="7.56" waitingTime="0.00" timeLoss="0.00" speed="19.60" speedRelative="1.00" departed="0" arrived="0" entered="18" left="18" laneChangedFrom="0" laneChangedTo="0"/>
        <edge id="3/1to4/1" sampledSeconds="896.38" traveltime="50.00" overlapTraveltime="50.25" density="15.25" laneDensity="15.25" occupancy="7.58" waitingTime="0.00" timeLoss="0.00" speed="19.60" speedRelative="1.00" departed="0" arrived="0" entered="18" left="19" laneChangedFrom="0" laneChangedTo="0"/>
        <edge id="4/1to5/1" sampledSeconds="1254.64" traveltime="50.00" overlapTraveltime="50.25" density="21.34" laneDensity="21.34" occupancy="10.62" waitingTime="0.00" timeLoss="0.00" speed="19.60" speedRelative="1.00" departed="0" arrived="0" entered="19" left="31" laneChangedFrom="0" laneChangedTo="0"/>
        <edge id="5/1to6/1" sampledSeconds="1616.20" traveltime="50.00" overlapTraveltime="50.25" density="27.49" laneDensity="27.49" occupancy="13.67" waitingTime="0.00" timeLoss="0.00" speed="19.60" speedRelative="1.00" departed="0" arrived="0" entered="31" left="33" laneChangedFrom="0" laneChangedTo="0"/>
        <edge id="6/1to7/1" sampledSeconds="1619.06" traveltime="50.00" overlapTraveltime="50.25" density="27.54" laneDensity="27.54" occupancy="13.70" waitingTime="0.00" timeLoss="0.00" speed="19.60" speedRelative="1.00" departed="0" arrived="0" entered="33" left="32" laneChangedFrom="0" laneChangedTo="0"/>
        <edge id="7/1to8/1" sampledSeconds="1619.05" traveltime="50.00" overlapTraveltime="50.25" density="27.54" laneDensity="27.54" occupancy="13.70" waitingTime="0.00" timeLoss="0.00" speed="19.60" speedRelative="1.00" departed="0" arrived="0" entered="33" left="32" laneChangedFrom="0" laneChangedTo="0"/>
        <edge id="8/1to9/1" sampledSeconds="1621.92" traveltime="50.01" overlapTraveltime="50.27" density="27.59" laneDensity="27.59" occupancy="13.72" waitingTime="0.00" timeLoss="0.61" speed="19.59" speedRelative="1.00" departed="0" arrived="0" entered="32" left="32" laneChangedFrom="0" laneChangedTo="0"/>
        <edge id="9/1to10/1" sampledSeconds="1016.44" traveltime="50.03" overlapTraveltime="50.29" density="17.29" laneDensity="17.29" occupancy="8.60" waitingTime="0.00" timeLoss="0.71" speed="19.59" speedRelative="1.00" departed="0" arrived="0" entered="32" left="7" laneChangedFrom="0" laneChangedTo="0"/>
    </interval>
    <interval begin="420.00" end="480.00" id="dump_60">
        <edge id="1/1to2/1" sampledSeconds="1033.21" traveltime="53.68" overlapTraveltime="53.93" density="17.57" laneDensity="17.57" occupancy="8.68" waitingTime="11.00" timeLoss="70.50" speed="18.26" speedRelative="0.93" departed="11" arrived="0" entered="12" left="18" laneChangedFrom="0" laneChangedTo="0"/>
        <edge id="10/1to1/1" sampledSeconds="1247.02" traveltime="50.22" overlapTraveltime="50.50" density="21.21" laneDensity="21.21" occupancy="10.55" waitingTime="0.00" timeLoss="6.09" speed="19.50" speedRelative="1.00" departed="0" arrived="0" entered="32" left="12" laneChangedFrom="0" laneChangedTo="0"/>
        <edge id="2/1to3/1" sampledSeconds="892.84" traveltime="50.00" overlapTraveltime="50.25" density="15.19" laneDensity="15.19" occupancy="7.55" waitingTime="0.00" timeLoss="0.00" speed="19.60" speedRelative="1.00" departed="0" arrived="0" entered="18" left="18" laneChangedFrom="0" laneChangedTo="0"/>
        <edge id="3/1to4/1" sampledSeconds="893.44" traveltime="50.00" overlapTraveltime="50.25" density="15.20" laneDensity="15.20" occupancy="7.56" waitingTime="0.00" timeLoss="0.00" speed="19.60" speedRelative="1.00" departed="0" arrived="0" entered="18" left="18" laneChangedFrom="0" laneChangedTo="0"/>
        <edge id="4/1to5/1" sampledSeconds="893.48" traveltime="50.00" overlapTraveltime="50.25" density="15.20" laneDensity="15.20" occupancy="7.56" waitingTime="0.00" timeLoss="0.00" speed="19.60" speedRelative="1.00" departed="0" arrived="0" entered="18" left="18" laneChangedFrom="0" laneChangedTo="0"/>
        <edge id="5/1to6/1" sampledSeconds="1138.93" traveltime="50.00" overlapTraveltime="50.25" density="19.37" laneDensity="19.37" occupancy="9.64" waitingTime="0.00" timeLoss="0.00" speed="19.60" speedRelative="1.00" departed="0" arrived="0" entered="18" left="28" laneChangedFrom="0" laneChangedTo="0"/>
        <edge id="6/1to7/1" sampledSeconds="1592.15" traveltime="50.00" overlapTraveltime="50.25" density="27.08" laneDensity="27.08" occupancy="13.47" waitingTime="0.00" timeLoss="0.00" speed="19.60" speedRelative="1.00" departed="0" arrived="0" entered="28" left="32" laneChangedFrom="0" laneChangedTo="0"/>
        <edge id="7/1to8/1" sampledSeconds="1619.08" traveltime="50.00" overlapTraveltime="50.25" density="27.54" laneDensity="27.54" occupancy="13.70" waitingTime="0.00" timeLoss="0.00" speed="19.60" speedRelative="1.00" departed="0" arrived="0" entered="32" left="32" laneChangedFrom="0" laneChangedTo="0"/>
        <edge id="8/1to9/1" sampledSeconds="1619.09" traveltime="50.00" overlapTraveltime="50.25" density="27.54" laneDensity="27.54" occupancy="13.70" waitingTime="0.00" timeLoss="0.00" speed="19.60" speedRelative="1.00" departed="0" arrived="0" entered="32" left="32" laneChangedFrom="0" laneChangedTo="0"/>
        <edge id="9/1to10/1" sampledSeconds="1622.17" traveltime="50.01" overlapTraveltime="50.27" density="27.59" laneDensity="27.59" occupancy="13.73" waitingTime="0.00" timeLoss="0.60" speed="19.59" speedRelative="1.00" departed="0" arrived="0" entered="32" left="32" laneChangedFrom="0" laneChangedTo="0"/>
    </interval>
    <interval begin="480.00" end="540.00" id="dump_60">
        <edge id="1/1to2/1" sampledSeconds="1575.13" traveltime="50.01" overlapTraveltime="50.27" density="26.79" laneDensity="26.79" occupancy="13.33" waitingTime="0.00" timeLoss="0.50" speed="19.59" speedRelative="1.00" departed="0" arrived="0" entered="32" left="26" laneChangedFrom="0" laneChangedTo="0"/>
        <edge id="10/1to1/1" sampledSeconds="1621.72" traveltime="50.01" overlapTraveltime="50.27" density="27.58" laneDensity="27.58" occupancy="13.72" waitingTime="0.00" timeLoss="0.48" speed="19.59" speedRelative="1.00" departed="0" arrived="0" entered="32" left="32" laneChangedFrom="0" laneChangedTo="0"/>
        <edge id="2/1to3/1" sampledSeconds="1041.69" traveltime="50.00" overlapTraveltime="50.26" density="17.72" laneDensity="17.72" occupancy="8.81" waitingTime="0.00" timeLoss="0.07" speed="19.60" speedRelative="1.00" departed="0" arrived="0" entered="26" left="18" laneChangedFrom="0" laneChangedTo="0"/>
        <edge id="3/1to4/1" sampledSeconds="893.48" traveltime="50.00" overlapTraveltime="50.25" density="15.20" laneDensity="15.20" occupancy="7.56" waitingTime="0.00" timeLoss="0.00" speed="19.60" speedRelative="1.00" departed="0" arrived="0" entered="18" left="18" laneChangedFrom="0" laneChangedTo="0"/>
        <edge id="4/1to5/1" sampledSeconds="893.48" traveltime="50.00" overlapTraveltime="50.25" density="15.20" laneDensity="15.20" occupancy="7.56" waitingTime="0.00" timeLoss="0.00" speed="19.60" speedRelative="1.00" departed="0" arrived="0" entered="18" left="18" laneChangedFrom="0" laneChangedTo="0"/>
        <edge id="5/1to6/1" sampledSeconds="892.84" traveltime="50.00" overlapTraveltime="50.25" density="15.19" laneDensity="15.19" occupancy="7.55" waitingTime="0.00" timeLoss="0.00" speed="19.60" speedRelative="1.00" departed="0" arrived="0" entered="18" left="18" laneChangedFrom="0" laneChangedTo="0"/>
        <edge id="6/1to7/1" sampledSeconds="1043.77" traveltime="50.00" overlapTraveltime="50.25" density="17.75" laneDensity="17.75" occupancy="8.83" waitingTime="0.00" timeLoss="0.00" speed="19.60" speedRelative="1.00" departed="0" arrived="0" entered="18" left="26" laneChangedFrom="0" laneChangedTo="0"/>
        <edge id="7/1to8/1" sampledSeconds="1545.07" traveltime="50.00" overlapTraveltime="50.25" density="26.28" laneDensity="26.28" occupancy="13.08" waitingTime="0.00" timeLoss="0.00" speed="19.60" speedRelative="1.00" departed="0" arrived="0" entered="26" left="32" laneChangedFrom="0" laneChangedTo="0"/>
        <edge id="8/1to9/1" sampledSeconds="1619.09" traveltime="50.00" overlapTraveltime="50.25" density="27.54" laneDensity="27.54" occupancy="13.70" waitingTime="0.00" timeLoss="0.00" speed="19.60" speedRelative="1.00" departed="0" arrived="0" entered="32" left="32" laneChangedFrom="0" laneChangedTo="0"/>
        <edge id="9/1to10/1" sampledSeconds="1619.09" traveltime="50.00" overlapTraveltime="50.25" density="27.54" laneDensity="27.54" occupancy="13.70" waitingTime="0.00" timeLoss="0.00" speed="19.60" speedRelative="1.00" departed="0" arrived="0" entered="32" left="32" laneChangedFrom="0" laneChangedTo="0"/>
    </interval>
    <interval begin="540.00" end="600.00" id="dump_60">
        <edge id="1/1to2/1" sampledSeconds="1621.62" traveltime="50.01" overlapTraveltime="50.27" density="27.58" laneDensity="27.58" occupancy="13.72" waitingTime="0.00" timeLoss="0.51" speed="19.59" speedRelative="1.00" departed="0" arrived="0" entered="33" left="33" laneChangedFrom="0" laneChangedTo="0"/>
        <edge id="10/1to1/1" sampledSeconds="1619.05" traveltime="50.00" overlapTraveltime="50.25" density="27.54" laneDensity="27.54" occupancy="13.70" waitingTime="0.00" timeLoss="0.00" speed="19.60" speedRelative="1.00" departed="0" arrived="0" entered="33" left="33" laneChangedFrom="0" laneChangedTo="0"/>
        <edge id="2/1to3/1" sampledSeconds="1618.95" traveltime="50.01" overlapTraveltime="50.27" density="27.53" laneDensity="27.53" occupancy="13.70" waitingTime="0.00" timeLoss="0.53" speed="19.59" speedRelative="1.00" departed="0" arrived="0" entered="33" left="29" laneChangedFrom="0" laneChangedTo="0"/>
        <edge id="3/1to4/1" sampledSeconds="1140.64" traveltime="50.00" overlapTraveltime="50.26" density="19.40" laneDensity="19.40" occupancy="9.65" waitingTime="0.00" timeLoss="0.10" speed="19.60" speedRelative="1.00" departed="0" arrived="0" entered="29" left="18" laneChangedFrom="0" laneChangedTo="0"/>
        <edge id="4/1to5/1" sampledSeconds="893.44" traveltime="50.00" overlapTraveltime="50.25" density="15.20" laneDensity="15.20" occupancy="7.56" waitingTime="0.00" timeLoss="0.00" speed="19.60" speedRelative="1.00" departed="0" arrived="0" entered="18" left="18" laneChangedFrom="0" laneChangedTo="0"/>
        <edge id="5/1to6/1" sampledSeconds="893.48" traveltime="50.00" overlapTraveltime="50.25" density="15.20" laneDensity="15.20" occupancy="7.56" waitingTime="0.00" timeLoss="0.00" speed="19.60" speedRelative="1.00" departed="0" arrived="0" entered="18" left="18" laneChangedFrom="0" laneChangedTo="0"/>
        <edge id="6/1to7/1" sampledSeconds="892.84" traveltime="50.00" overlapTraveltime="50.25" density="15.19" laneDensity="15.19" occupancy="7.55" waitingTime="0.00" timeLoss="0.00" speed="19.60" speedRelative="1.00" departed="0" arrived="0" entered="18" left="18" laneChangedFrom="0" laneChangedTo="0"/>
        <edge id="7/1to8/1" sampledSeconds="971.61" traveltime="50.00" overlapTraveltime="50.25" density="16.53" laneDensity="16.53" occupancy="8.22" waitingTime="0.00" timeLoss="0.00" speed="19.60" speedRelative="1.00" departed="0" arrived="0" entered="18" left="24" laneChangedFrom="0" laneChangedTo="0"/>
        <edge id="8/1to9/1" sampledSeconds="1475.03" traveltime="50.00" overlapTraveltime="50.25" density="25.09" laneDensity="25.09" occupancy="12.48" waitingTime="0.00" timeLoss="0.00" speed="19.60" speedRelative="1.00" departed="0" arrived="0" entered="24" left="33" laneChangedFrom="0" laneChangedTo="0"/>
        <edge id="9/1to10/1" sampledSeconds="1619.08" traveltime="50.00" overlapTraveltime="50.25" density="27.54" laneDensity="27.54" occupancy="13.70" waitingTime="0.00" timeLoss="0.00" speed="19.60" speedRelative="1.00" departed="0" arrived="0" entered="32" left="33" laneChangedFrom="0" laneChangedTo="0"/>
    </interval>
    <interval begin="600.00" end="660.00" id="dump_60">
        <edge id="1/1to2/1" sampledSeconds="1619.09" traveltime="50.00" overlapTraveltime="50.25" density="27.54" laneDensity="27.54" occupancy="13.70" waitingTime="0.00" timeLoss="0.00" speed="19.60" speedRelative="1.00" departed="0" arrived="0" entered="32" left="32" laneChangedFrom="0" laneChangedTo="0"/>
        <edge id="10/1to1/1" sampledSeconds="1619.09" traveltime="50.00" overlapTraveltime="50.25" density="27.54" laneDensity="27.54" occupancy="13.70" waitingTime="0.00" timeLoss="0.00" speed="19.60" speedRelative="1.00" departed="0" arrived="0" entered="32" left="32" laneChangedFrom="0" laneChangedTo="0"/>
        <edge id="2/1to3/1" sampledSeconds="1621.28" traveltime="50.01" overlapTraveltime="50.27" density="27.57" laneDensity="27.57" occupancy="13.72" waitingTime="0.00" timeLoss="0.43" speed="19.59" speedRelative="1.00" departed="0" arrived="0" entered="32" left="32" laneChangedFrom="0" laneChangedTo="0"/>
        <edge id="3/1to4/1" sampledSeconds="1638.85" traveltime="50.02" overlapTraveltime="50.27" density="27.87" laneDensity="27.87" occupancy="13.87" waitingTime="0.00" timeLoss="0.67" speed="19.59" speedRelative="1.00" departed="0" arrived="0" entered="32" left="31" laneChangedFrom="0" laneChangedTo="0"/>
        <edge id="4/1to5/1" sampledSeconds="1263.33" traveltime="50.00" overlapTraveltime="50.26" density="21.49" laneDensity="21.49" occupancy="10.69" waitingTime="0.00" timeLoss="0.12" speed="19.60" speedRelative="1.00" departed="0" arrived="0" entered="31" left="18" laneChangedFrom="0" laneChangedTo="0"/>
        <edge id="5/1to6/1" sampledSeconds="893.44" traveltime="50.00" overlapTraveltime="50.25" density="15.20" laneDensity="15.20" occupancy="7.56" waitingTime="0.00" timeLoss="0.00" speed="19.60" speedRelative="1.00" departed="0" arrived="0" entered="18" left="18" laneChangedFrom="0" laneChangedTo="0"/>
        <edge id="6/1to7/1" sampledSeconds="893.48" traveltime="50.00" overlapTraveltime="50.25" density="15.20" laneDensity="15.20" occupancy="7.56" waitingTime="0.00" timeLoss="0.00" speed="19.60" speedRelative="1.00" departed="0" arrived="0" entered="18" left="18" laneChangedFrom="0" laneChangedTo="0"/>
        <edge id="7/1to8/1" sampledSeconds="893.48" traveltime="50.00" overlapTraveltime="50.25" density="15.20" laneDensity="15.20" occupancy="7.56" waitingTime="0.00" timeLoss="0.00" speed="19.60" speedRelative="1.00" departed="0" arrived="0" entered="18" left="18" laneChangedFrom="0" laneChangedTo="0"/>
        <edge id="8/1to9/1" sampledSeconds="922.45" traveltime="50.00" overlapTraveltime="50.25" density="15.69" laneDensity="15.69" occupancy="7.80" waitingTime="0.00" timeLoss="0.00" speed="19.60" speedRelative="1.00" departed="0" arrived="0" entered="18" left="21" laneChangedFrom="0" laneChangedTo="0"/>
        <edge id="9/1to10/1" sampledSeconds="1380.95" traveltime="50.00" overlapTraveltime="50.25" density="23.49" laneDensity="23.49" occupancy="11.68" waitingTime="0.00" timeLoss="0.00" speed="19.60" speedRelative="1.00" departed="0" arrived="0" entered="22" left="32" laneChangedFrom="0" laneChangedTo="0"/>
    </interval>
    <interval begin="660.00" end="720.00" id="dump_60">
        <edge id="1/1to2/1" sampledSeconds="1619.24" traveltime="50.06" overlapTraveltime="50.31" density="27.54" laneDensity="27.54" occupancy="13.70" waitingTime="2.00" timeLoss="2.00" speed="19.58" speedRelative="1.00" departed="2" arrived="0" entered="31" left="32" laneChangedFrom="0" laneChangedTo="0"/>
        <edge id="10/1to1/1" sampledSeconds="1265.55" traveltime="50.00" overlapTraveltime="50.26" density="21.52" laneDensity="21.52" occupancy="10.71" waitingTime="0.00" timeLoss="0.17" speed="19.60" speedRelative="1.00" departed="0" arrived="0" entered="19" left="31" laneChangedFrom="0" laneChangedTo="0"/>
        <edge id="2/1to3/1" sampledSeconds="1619.09" traveltime="50.00" overlapTraveltime="50.25" density="27.54" laneDensity="27.54" occupancy="13.70" waitingTime="0.00" timeLoss="0.00" speed="19.60" speedRelative="1.00" departed="0" arrived="0" entered="32" left="32" laneChangedFrom="0" laneChangedTo="0"/>
        <edge id="3/1to4/1" sampledSeconds="1621.22" traveltime="50.01" overlapTraveltime="50.27" density="27.57" laneDensity="27.57" occupancy="13.72" waitingTime="0.00" timeLoss="0.45" speed="19.59" speedRelative="1.00" departed="0" arrived="0" entered="32" left="32" laneChangedFrom="0" laneChangedTo="0"/>