<?xml version="1.0" encoding="UTF-8"?>

<!-- generated on 2022-09-01 21:56:26 by Eclipse SUMO sumo Version v1_14_1+0775-edc6051
This data file and the accompanying materials
are made available under the terms of the Eclipse Public License v2.0
which accompanies this distribution, and is available at
http://www.eclipse.org/legal/epl-v20.html
This file may also be made available under the following Secondary
Licenses when the conditions for such availability set forth in the Eclipse
Public License 2.0 are satisfied: GNU General Public License, version 2
or later which is available at
https://www.gnu.org/licenses/old-licenses/gpl-2.0-standalone.html
SPDX-License-Identifier: EPL-2.0 OR GPL-2.0-or-later
<configuration xmlns:xsi="http://www.w3.org/2001/XMLSchema-instance" xsi:noNamespaceSchemaLocation="http://sumo.dlr.de/xsd/sumoConfiguration.xsd">

    <input>
        <net-file value="net.net.xml"/>
        <route-files value="input_routes.rou.xml"/>
        <additional-files value="input_additional.add.xml,input_additional2.add.xml"/>
    </input>

    <output>
        <write-license value="true"/>
        <tripinfo-output.write-unfinished value="true"/>
    </output>

    <time>
        <begin value="0"/>
        <end value="3000"/>
    </time>

    <processing>
        <default.speeddev value="0"/>
    </processing>

    <report>
        <xml-validation value="never"/>
        <duration-log.statistics value="true"/>
        <no-step-log value="true"/>
    </report>

</configuration>
-->

<meandata xmlns:xsi="http://www.w3.org/2001/XMLSchema-instance" xsi:noNamespaceSchemaLocation="http://sumo.dlr.de/xsd/meandata_file.xsd">
    <interval begin="0.00" end="60.00" id="dump_60">
        <edge id="1/1to2/1" sampledSeconds="988.54" traveltime="281.41" overlapTraveltime="274.71" density="16.81" laneDensity="16.81" occupancy="8.36" waitingTime="633.00" timeLoss="807.71" speed="3.59" speedRelative="0.18" departed="60" arrived="0" entered="0" left="28" laneChangedFrom="0" laneChangedTo="0"/>
        <edge id="2/1to3/1" sampledSeconds="779.44" traveltime="50.98" overlapTraveltime="51.24" density="13.26" laneDensity="13.26" occupancy="6.58" waitingTime="0.00" timeLoss="14.99" speed="19.22" speedRelative="0.98" departed="0" arrived="0" entered="28" left="2" laneChangedFrom="0" laneChangedTo="0"/>
        <edge id="3/1to4/1" sampledSeconds="6.21" traveltime="50.42" overlapTraveltime="50.67" density="0.11" laneDensity="0.11" occupancy="0.05" waitingTime="0.00" timeLoss="0.05" speed="19.44" speedRelative="0.99" departed="0" arrived="0" entered="2" left="0" laneChangedFrom="0" laneChangedTo="0"/>
    </interval>
    <interval begin="60.00" end="120.00" id="dump_60">
        <edge id="1/1to2/1" sampledSeconds="2750.23" traveltime="229.82" overlapTraveltime="228.63" density="46.78" laneDensity="46.78" occupancy="23.35" waitingTime="1942.00" timeLoss="2145.75" speed="4.31" speedRelative="0.22" departed="60" arrived="0" entered="0" left="31" laneChangedFrom="0" laneChangedTo="0"/>
        <edge id="2/1to3/1" sampledSeconds="1559.02" traveltime="50.00" overlapTraveltime="50.25" density="26.52" laneDensity="26.52" occupancy="13.19" waitingTime="0.00" timeLoss="0.07" speed="19.60" speedRelative="1.00" departed="0" arrived="0" entered="31" left="31" laneChangedFrom="0" laneChangedTo="0"/>
        <edge id="3/1to4/1" sampledSeconds="1014.29" traveltime="50.02" overlapTraveltime="50.27" density="17.25" laneDensity="17.25" occupancy="8.58" waitingTime="0.00" timeLoss="0.42" speed="19.59" speedRelative="1.00" departed="0" arrived="0" entered="31" left="7" laneChangedFrom="0" laneChangedTo="0"/>
        <edge id="4/1to5/1" sampledSeconds="53.40" traveltime="50.08" overlapTraveltime="50.33" density="0.91" laneDensity="0.91" occupancy="0.45" waitingTime="0.00" timeLoss="0.09" speed="19.57" speedRelative="1.00" departed="0" arrived="0" entered="7" left="0" laneChangedFrom="0" laneChangedTo="0"/>
    </interval>
    <interval begin="120.00" end="180.00" id="dump_60">
        <edge id="1/1to2/1" sampledSeconds="3668.71" traveltime="178.39" overlapTraveltime="178.31" density="62.40" laneDensity="62.40" occupancy="30.90" waitingTime="2431.00" timeLoss="2634.80" speed="5.52" speedRelative="0.28" departed="19" arrived="0" entered="0" left="31" laneChangedFrom="0" laneChangedTo="0"/>
        <edge id="2/1to3/1" sampledSeconds="1559.12" traveltime="50.00" overlapTraveltime="50.25" density="26.52" laneDensity="26.52" occupancy="13.19" waitingTime="0.00" timeLoss="0.00" speed="19.60" speedRelative="1.00" departed="0" arrived="0" entered="31" left="31" laneChangedFrom="0" laneChangedTo="0"/>
        <edge id="3/1to4/1" sampledSeconds="1559.24" traveltime="50.00" overlapTraveltime="50.25" density="26.52" laneDensity="26.52" occupancy="13.19" waitingTime="0.00" timeLoss="0.01" speed="19.60" speedRelative="1.00" departed="0" arrived="0" entered="31" left="31" laneChangedFrom="0" laneChangedTo="0"/>
        <edge id="4/1to5/1" sampledSeconds="1223.21" traveltime="50.02" overlapTraveltime="50.27" density="20.80" laneDensity="20.80" occupancy="10.36" waitingTime="0.00" timeLoss="0.50" speed="19.59" speedRelative="1.00" departed="0" arrived="0" entered="31" left="13" laneChangedFrom="0" laneChangedTo="0"/>
        <edge id="5/1to6/1" sampledSeconds="150.29" traveltime="50.05" overlapTraveltime="50.31" density="2.56" laneDensity="2.56" occupancy="1.26" waitingTime="0.00" timeLoss="0.16" speed="19.58" speedRelative="1.00" departed="0" arrived="0" entered="12" left="0" laneChangedFrom="0" laneChangedTo="0"/>
    </interval>
    <interval begin="180.00" end="240.00" id="dump_60">
        <edge id="1/1to2/1" sampledSeconds="2059.77" traveltime="72.98" overlapTraveltime="73.22" density="35.03" laneDensity="35.03" occupancy="17.19" waitingTime="481.00" timeLoss="646.12" speed="13.45" speedRelative="0.69" departed="6" arrived="0" entered="0" left="31" laneChangedFrom="0" laneChangedTo="0"/>
        <edge id="2/1to3/1" sampledSeconds="1559.40" traveltime="50.00" overlapTraveltime="50.25" density="26.52" laneDensity="26.52" occupancy="13.19" waitingTime="0.00" timeLoss="0.00" speed="19.60" speedRelative="1.00" departed="0" arrived="0" entered="31" left="31" laneChangedFrom="0" laneChangedTo="0"/>
        <edge id="3/1to4/1" sampledSeconds="1559.34" traveltime="50.00" overlapTraveltime="50.25" density="26.52" laneDensity="26.52" occupancy="13.19" waitingTime="0.00" timeLoss="0.00" speed="19.60" speedRelative="1.00" departed="0" arrived="0" entered="31" left="32" laneChangedFrom="0" laneChangedTo="0"/>
        <edge id="4/1to5/1" sampledSeconds="1559.12" traveltime="50.00" overlapTraveltime="50.25" density="26.52" laneDensity="26.52" occupancy="13.19" waitingTime="0.00" timeLoss="0.01" speed="19.60" speedRelative="1.00" departed="0" arrived="0" entered="31" left="31" laneChangedFrom="0" laneChangedTo="0"/>
        <edge id="5/1to6/1" sampledSeconds="1382.43" traveltime="50.02" overlapTraveltime="50.28" density="23.51" laneDensity="23.51" occupancy="11.70" waitingTime="0.00" timeLoss="0.68" speed="19.59" speedRelative="1.00" departed="0" arrived="0" entered="31" left="18" laneChangedFrom="0" laneChangedTo="0"/>
        <edge id="6/1to7/1" sampledSeconds="297.17" traveltime="50.04" overlapTraveltime="50.30" density="5.05" laneDensity="5.05" occupancy="2.51" waitingTime="0.00" timeLoss="0.26" speed="19.58" speedRelative="1.00" departed="0" arrived="0" entered="18" left="0" laneChangedFrom="0" laneChangedTo="0"/>
    </interval>
    <interval begin="240.00" end="300.00" id="dump_60">
        <edge id="1/1to2/1" sampledSeconds="1111.33" traveltime="54.69" overlapTraveltime="54.94" density="18.90" laneDensity="18.90" occupancy="9.29" waitingTime="18.00" timeLoss="94.76" speed="17.93" speedRelative="0.91" departed="18" arrived="0" entered="0" left="25" laneChangedFrom="0" laneChangedTo="0"/>
        <edge id="2/1to3/1" sampledSeconds="1482.51" traveltime="50.00" overlapTraveltime="50.25" density="25.21" laneDensity="25.21" occupancy="12.55" waitingTime="0.00" timeLoss="0.00" speed="19.60" speedRelative="1.00" departed="0" arrived="0" entered="25" left="31" laneChangedFrom="0" laneChangedTo="0"/>
        <edge id="3/1to4/1" sampledSeconds="1559.14" traveltime="50.00" overlapTraveltime="50.25" density="26.52" laneDensity="26.52" occupancy="13.19" waitingTime="0.00" timeLoss="0.00" speed="19.60" speedRelative="1.00" departed="0" arrived="0" entered="31" left="31" laneChangedFrom="0" laneChangedTo="0"/>
        <edge id="4/1to5/1" sampledSeconds="1559.40" traveltime="50.00" overlapTraveltime="50.25" density="26.52" laneDensity="26.52" occupancy="13.19" waitingTime="0.00" timeLoss="0.00" speed="19.60" speedRelative="1.00" departed="0" arrived="0" entered="31" left="31" laneChangedFrom="0" laneChangedTo="0"/>
        <edge id="5/1to6/1" sampledSeconds="1559.28" traveltime="50.00" overlapTraveltime="50.25" density="26.52" laneDensity="26.52" occupancy="13.19" waitingTime="0.00" timeLoss="0.00" speed="19.60" speedRelative="1.00" departed="0" arrived="0" entered="31" left="31" laneChangedFrom="0" laneChangedTo="0"/>
        <edge id="6/1to7/1" sampledSeconds="1491.43" traveltime="50.02" overlapTraveltime="50.27" density="25.37" laneDensity="25.37" occupancy="12.62" waitingTime="0.00" timeLoss="0.61" speed="19.59" speedRelative="1.00" departed="0" arrived="0" entered="31" left="23" laneChangedFrom="0" laneChangedTo="0"/>
        <edge id="7/1to8/1" sampledSeconds="494.28" traveltime="50.02" overlapTraveltime="50.28" density="8.41" laneDensity="8.41" occupancy="4.18" waitingTime="0.00" timeLoss="0.27" speed="19.59" speedRelative="1.00" departed="0" arrived="0" entered="23" left="0" laneChangedFrom="0" laneChangedTo="0"/>
    </interval>
    <interval begin="300.00" end="360.00" id="dump_60">
        <edge id="1/1to2/1" sampledSeconds="984.66" traveltime="55.31" overlapTraveltime="55.56" density="16.75" laneDensity="16.75" occupancy="8.22" waitingTime="17.00" timeLoss="94.10" speed="17.73" speedRelative="0.90" departed="18" arrived="0" entered="0" left="18" laneChangedFrom="0" laneChangedTo="0"/>
        <edge id="2/1to3/1" sampledSeconds="956.31" traveltime="50.00" overlapTraveltime="50.25" density="16.26" laneDensity="16.26" occupancy="8.09" waitingTime="0.00" timeLoss="0.00" speed="19.60" speedRelative="1.00" departed="0" arrived="0" entered="18" left="23" laneChangedFrom="0" laneChangedTo="0"/>
        <edge id="3/1to4/1" sampledSeconds="1414.94" traveltime="50.00" overlapTraveltime="50.25" density="24.07" laneDensity="24.07" occupancy="11.97" waitingTime="0.00" timeLoss="0.00" speed="19.60" speedRelative="1.00" departed="0" arrived="0" entered="23" left="31" laneChangedFrom="0" laneChangedTo="0"/>
        <edge id="4/1to5/1" sampledSeconds="1559.19" traveltime="50.00" overlapTraveltime="50.25" density="26.52" laneDensity="26.52" occupancy="13.19" waitingTime="0.00" timeLoss="0.00" speed="19.60" speedRelative="1.00" departed="0" arrived="0" entered="31" left="31" laneChangedFrom="0" laneChangedTo="0"/>
        <edge id="5/1to6/1" sampledSeconds="1559.24" traveltime="50.00" overlapTraveltime="50.25" density="26.52" laneDensity="26.52" occupancy="13.19" waitingTime="0.00" timeLoss="0.00" speed="19.60" speedRelative="1.00" departed="0" arrived="0" entered="32" left="31" laneChangedFrom="0" laneChangedTo="0"/>
        <edge id="6/1to7/1" sampledSeconds="1559.43" traveltime="50.00" overlapTraveltime="50.25" density="26.52" laneDensity="26.52" occupancy="13.19" waitingTime="0.00" timeLoss="0.00" speed="19.60" speedRelative="1.00" departed="0" arrived="0" entered="31" left="31" laneChangedFrom="0" laneChangedTo="0"/>
        <edge id="7/1to8/1" sampledSeconds="1550.50" traveltime="50.02" overlapTraveltime="50.28" density="26.37" laneDensity="26.37" occupancy="13.12" waitingTime="0.00" timeLoss="0.75" speed="19.59" speedRelative="1.00" departed="0" arrived="0" entered="31" left="28" laneChangedFrom="0" laneChangedTo="0"/>
        <edge id="8/1to9/1" sampledSeconds="737.77" traveltime="50.03" overlapTraveltime="50.29" density="12.55" laneDensity="12.55" occupancy="6.24" waitingTime="0.00" timeLoss="0.52" speed="19.59" speedRelative="1.00" departed="0" arrived="0" entered="28" left="2" laneChangedFrom="0" laneChangedTo="0"/>
        <edge id="9/1to10/1" sampledSeconds="3.68" traveltime="50.13" overlapTraveltime="50.39" density="0.06" laneDensity="0.06" occupancy="0.03" waitingTime="0.00" timeLoss="0.01" speed="19.55" speedRelative="1.00" departed="0" arrived="0" entered="2" left="0" laneChangedFrom="0" laneChangedTo="0"/>
    </interval>
    <interval begin="360.00" end="420.00" id="dump_60">
        <edge id="1/1to2/1" sampledSeconds="990.05" traveltime="55.35" overlapTraveltime="55.60" density="16.84" laneDensity="16.84" occupancy="8.25" waitingTime="18.00" timeLoss="95.31" speed="17.71" speedRelative="0.90" departed="18" arrived="0" entered="0" left="18" laneChangedFrom="0" laneChangedTo="0"/>
        <edge id="10/1to1/1" sampledSeconds="44.77" traveltime="50.11" overlapTraveltime="50.37" density="0.76" laneDensity="0.76" occupancy="0.37" waitingTime="0.00" timeLoss="0.10" speed="19.56" speedRelative="1.00" departed="0" arrived="0" entered="7" left="0" laneChangedFrom="0" laneChangedTo="0"/>
        <edge id="2/1to3/1" sampledSeconds="893.26" traveltime="50.00" overlapTraveltime="50.25" density="15.19" laneDensity="15.19" occupancy="7.56" waitingTime="0.00" timeLoss="0.00" speed="19.60" speedRelative="1.00" departed="0" arrived="0" entered="18" left="18" laneChangedFrom="0" laneChangedTo="0"/>
        <edge id="3/1to4/1" sampledSeconds="915.20" traveltime="50.00" overlapTraveltime="50.25" density="15.57" laneDensity="15.57" occupancy="7.74" waitingTime="0.00" timeLoss="0.00" speed="19.60" speedRelative="1.00" departed="0" arrived="0" entered="18" left="20" laneChangedFrom="0" laneChangedTo="0"/>
        <edge id="4/1to5/1" sampledSeconds="1325.30" traveltime="50.00" overlapTraveltime="50.25" density="22.54" laneDensity="22.54" occupancy="11.21" waitingTime="0.00" timeLoss="0.00" speed="19.60" speedRelative="1.00" departed="0" arrived="0" entered="21" left="31" laneChangedFrom="0" laneChangedTo="0"/>
        <edge id="5/1to6/1" sampledSeconds="1559.34" traveltime="50.00" overlapTraveltime="50.25" density="26.52" laneDensity="26.52" occupancy="13.19" waitingTime="0.00" timeLoss="0.00" speed="19.60" speedRelative="1.00" departed="0" arrived="0" entered="31" left="31" laneChangedFrom="0" laneChangedTo="0"/>
        <edge id="6/1to7/1" sampledSeconds="1559.12" traveltime="50.00" overlapTraveltime="50.25" density="26.52" laneDensity="26.52" occupancy="13.19" waitingTime="0.00" timeLoss="0.00" speed="19.60" speedRelative="1.00" departed="0" arrived="0" entered="31" left="31" laneChangedFrom="0" laneChangedTo="0"/>
        <edge id="7/1to8/1" sampledSeconds="1559.26" traveltime="50.00" overlapTraveltime="50.25" density="26.52" laneDensity="26.52" occupancy="13.19" waitingTime="0.00" timeLoss="0.00" speed="19.60" speedRelative="1.00" departed="0" arrived="0" entered="31" left="31" laneChangedFrom="0" laneChangedTo="0"/>
        <edge id="8/1to9/1" sampledSeconds="1563.16" traveltime="50.02" overlapTraveltime="50.27" density="26.59" laneDensity="26.59" occupancy="13.23" waitingTime="0.00" timeLoss="0.64" speed="19.59" speedRelative="1.00" departed="0" arrived="0" entered="31" left="31" laneChangedFrom="0" laneChangedTo="0"/>
        <edge id="9/1to10/1" sampledSeconds="990.58" traveltime="50.04" overlapTraveltime="50.29" density="16.85" laneDensity="16.85" occupancy="8.38" waitingTime="0.00" timeLoss="0.80" speed="19.58" speedRelative="1.00" departed="0" arrived="0" entered="31" left="7" laneChangedFrom="0" laneChangedTo="0"/>
    </interval>
    <interval begin="420.00" end="480.00" id="dump_60">
        <edge id="1/1to2/1" sampledSeconds="1031.78" traveltime="53.42" overlapTraveltime="53.68" density="17.55" laneDensity="17.55" occupancy="8.64" waitingTime="11.00" timeLoss="65.83" speed="18.35" speedRelative="0.94" departed="10" arrived="0" entered="12" left="18" laneChangedFrom="0" laneChangedTo="0"/>
        <edge id="10/1to1/1" sampledSeconds="1208.07" traveltime="50.11" overlapTraveltime="50.38" density="20.55" laneDensity="20.55" occupancy="10.23" waitingTime="0.00" timeLoss="3.10" speed="19.55" speedRelative="1.00" departed="0" arrived="0" entered="31" left="12" laneChangedFrom="0" laneChangedTo="0"/>
        <edge id="2/1to3/1" sampledSeconds="897.42" traveltime="50.00" overlapTraveltime="50.25" density="15.26" laneDensity="15.26" occupancy="7.59" waitingTime="0.00" timeLoss="0.00" speed="19.60" speedRelative="1.00" departed="0" arrived="0" entered="18" left="18" laneChangedFrom="0" laneChangedTo="0"/>
        <edge id="3/1to4/1" sampledSeconds="893.61" traveltime="50.00" overlapTraveltime="50.25" density="15.20" laneDensity="15.20" occupancy="7.56" waitingTime="0.00" timeLoss="0.00" speed="19.60" speedRelative="1.00" departed="0" arrived="0" entered="18" left="18" laneChangedFrom="0" laneChangedTo="0"/>
        <edge id="4/1to5/1" sampledSeconds="895.35" traveltime="50.00" overlapTraveltime="50.25" density="15.23" laneDensity="15.23" occupancy="7.57" waitingTime="0.00" timeLoss="0.00" speed="19.60" speedRelative="1.00" departed="0" arrived="0" entered="18" left="18" laneChangedFrom="0" laneChangedTo="0"/>
        <edge id="5/1to6/1" sampledSeconds="1217.86" traveltime="50.00" overlapTraveltime="50.25" density="20.71" laneDensity="20.71" occupancy="10.31" waitingTime="0.00" timeLoss="0.00" speed="19.60" speedRelative="1.00" departed="0" arrived="0" entered="18" left="30" laneChangedFrom="0" laneChangedTo="0"/>
        <edge id="6/1to7/1" sampledSeconds="1555.62" traveltime="50.00" overlapTraveltime="50.25" density="26.46" laneDensity="26.46" occupancy="13.16" waitingTime="0.00" timeLoss="0.00" speed="19.60" speedRelative="1.00" departed="0" arrived="0" entered="29" left="31" laneChangedFrom="0" laneChangedTo="0"/>
        <edge id="7/1to8/1" sampledSeconds="1559.34" traveltime="50.00" overlapTraveltime="50.25" density="26.52" laneDensity="26.52" occupancy="13.19" waitingTime="0.00" timeLoss="0.00" speed="19.60" speedRelative="1.00" departed="0" arrived="0" entered="31" left="31" laneChangedFrom="0" laneChangedTo="0"/>
        <edge id="8/1to9/1" sampledSeconds="1559.12" traveltime="50.00" overlapTraveltime="50.25" density="26.52" laneDensity="26.52" occupancy="13.19" waitingTime="0.00" timeLoss="0.00" speed="19.60" speedRelative="1.00" departed="0" arrived="0" entered="31" left="31" laneChangedFrom="0" laneChangedTo="0"/>
        <edge id="9/1to10/1" sampledSeconds="1562.80" traveltime="50.02" overlapTraveltime="50.27" density="26.58" laneDensity="26.58" occupancy="13.22" waitingTime="0.00" timeLoss="0.63" speed="19.59" speedRelative="1.00" departed="0" arrived="0" entered="31" left="31" laneChangedFrom="0" laneChangedTo="0"/>
    </interval>
    <interval begin="480.00" end="540.00" id="dump_60">
        <edge id="1/1to2/1" sampledSeconds="1515.45" traveltime="50.02" overlapTraveltime="50.28" density="25.77" laneDensity="25.77" occupancy="12.83" waitingTime="0.00" timeLoss="0.77" speed="19.59" speedRelative="1.00" departed="0" arrived="0" entered="31" left="26" laneChangedFrom="0" laneChangedTo="0"/>
        <edge id="10/1to1/1" sampledSeconds="1562.48" traveltime="50.01" overlapTraveltime="50.27" density="26.57" laneDensity="26.57" occupancy="13.22" waitingTime="0.00" timeLoss="0.61" speed="19.59" speedRelative="1.00" departed="0" arrived="0" entered="31" left="31" laneChangedFrom="0" laneChangedTo="0"/>
        <edge id="2/1to3/1" sampledSeconds="1039.96" traveltime="50.00" overlapTraveltime="50.26" density="17.69" laneDensity="17.69" occupancy="8.80" waitingTime="0.00" timeLoss="0.11" speed="19.60" speedRelative="1.00" departed="0" arrived="0" entered="26" left="18" laneChangedFrom="0" laneChangedTo="0"/>
        <edge id="3/1to4/1" sampledSeconds="895.80" traveltime="50.00" overlapTraveltime="50.25" density="15.24" laneDensity="15.24" occupancy="7.58" waitingTime="0.00" timeLoss="0.00" speed="19.60" speedRelative="1.00" departed="0" arrived="0" entered="18" left="18" laneChangedFrom="0" laneChangedTo="0"/>
        <edge id="4/1to5/1" sampledSeconds="894.56" traveltime="50.00" overlapTraveltime="50.25" density="15.21" laneDensity="15.21" occupancy="7.57" waitingTime="0.00" timeLoss="0.00" speed="19.60" speedRelative="1.00" departed="0" arrived="0" entered="18" left="18" laneChangedFrom="0" laneChangedTo="0"/>
        <edge id="5/1to6/1" sampledSeconds="893.28" traveltime="50.00" overlapTraveltime="50.25" density="15.19" laneDensity="15.19" occupancy="7.56" waitingTime="0.00" timeLoss="0.00" speed="19.60" speedRelative="1.00" departed="0" arrived="0" entered="18" left="17" laneChangedFrom="0" laneChangedTo="0"/>
        <edge id="6/1to7/1" sampledSeconds="1112.21" traveltime="50.00" overlapTraveltime="50.25" density="18.92" laneDensity="18.92" occupancy="9.41" waitingTime="0.00" timeLoss="0.00" speed="19.60" speedRelative="1.00" departed="0" arrived="0" entered="18" left="27" laneChangedFrom="0" laneChangedTo="0"/>
        <edge id="7/1to8/1" sampledSeconds="1532.59" traveltime="50.00" overlapTraveltime="50.25" density="26.07" laneDensity="26.07" occupancy="12.97" waitingTime="0.00" timeLoss="0.00" speed="19.60" speedRelative="1.00" departed="0" arrived="0" entered="27" left="31" laneChangedFrom="0" laneChangedTo="0"/>
        <edge id="8/1to9/1" sampledSeconds="1559.40" traveltime="50.00" overlapTraveltime="50.25" density="26.52" laneDensity="26.52" occupancy="13.19" waitingTime="0.00" timeLoss="0.00" speed="19.60" speedRelative="1.00" departed="0" arrived="0" entered="31" left="31" laneChangedFrom="0" laneChangedTo="0"/>
        <edge id="9/1to10/1" sampledSeconds="1559.34" traveltime="50.00" overlapTraveltime="50.25" density="26.52" laneDensity="26.52" occupancy="13.19" waitingTime="0.00" timeLoss="0.00" speed="19.60" speedRelative="1.00" departed="0" arrived="0" entered="31" left="31" laneChangedFrom="0" laneChangedTo="0"/>
    </interval>
    <interval begin="540.00" end="600.00" id="dump_60">
        <edge id="1/1to2/1" sampledSeconds="1562.55" traveltime="50.01" overlapTraveltime="50.27" density="26.58" laneDensity="26.58" occupancy="13.22" waitingTime="0.00" timeLoss="0.60" speed="19.59" speedRelative="1.00" departed="0" arrived="0" entered="31" left="31" laneChangedFrom="0" laneChangedTo="0"/>
        <edge id="10/1to1/1" sampledSeconds="1559.40" traveltime="50.00" overlapTraveltime="50.25" density="26.52" laneDensity="26.52" occupancy="13.19" waitingTime="0.00" timeLoss="0.00" speed="19.60" speedRelative="1.00" departed="0" arrived="0" entered="31" left="31" laneChangedFrom="0" laneChangedTo="0"/>
        <edge id="2/1to3/1" sampledSeconds="1553.75" traveltime="50.02" overlapTraveltime="50.28" density="26.43" laneDensity="26.43" occupancy="13.15" waitingTime="0.00" timeLoss="0.76" speed="19.59" speedRelative="1.00" departed="0" arrived="0" entered="31" left="28" laneChangedFrom="0" laneChangedTo="0"/>
        <edge id="3/1to4/1" sampledSeconds="1131.47" traveltime="50.00" overlapTraveltime="50.26" density="19.24" laneDensity="19.24" occupancy="9.57" waitingTime="0.00" timeLoss="0.13" speed="19.60" speedRelative="1.00" departed="0" arrived="0" entered="28" left="18" laneChangedFrom="0" laneChangedTo="0"/>
        <edge id="4/1to5/1" sampledSeconds="896.32" traveltime="50.00" overlapTraveltime="50.25" density="15.24" laneDensity="15.24" occupancy="7.58" waitingTime="0.00" timeLoss="0.00" speed="19.60" speedRelative="1.00" departed="0" arrived="0" entered="18" left="18" laneChangedFrom="0" laneChangedTo="0"/>
        <edge id="5/1to6/1" sampledSeconds="895.48" traveltime="50.00" overlapTraveltime="50.25" density="15.23" laneDensity="15.23" occupancy="7.58" waitingTime="0.00" timeLoss="0.00" speed="19.60" speedRelative="1.00" departed="0" arrived="0" entered="18" left="18" laneChangedFrom="0" laneChangedTo="0"/>
        <edge id="6/1to7/1" sampledSeconds="893.32" traveltime="50.00" overlapTraveltime="50.25" density="15.19" laneDensity="15.19" occupancy="7.56" waitingTime="0.00" timeLoss="0.00" speed="19.60" speedRelative="1.00" departed="0" arrived="0" entered="18" left="18" laneChangedFrom="0" laneChangedTo="0"/>
        <edge id="7/1to8/1" sampledSeconds="1025.67" traveltime="50.00" overlapTraveltime="50.25" density="17.44" laneDensity="17.44" occupancy="8.68" waitingTime="0.00" timeLoss="0.00" speed="19.60" speedRelative="1.00" departed="0" arrived="0" entered="18" left="25" laneChangedFrom="0" laneChangedTo="0"/>
        <edge id="8/1to9/1" sampledSeconds="1487.97" traveltime="50.00" overlapTraveltime="50.25" density="25.31" laneDensity="25.31" occupancy="12.59" waitingTime="0.00" timeLoss="0.00" speed="19.60" speedRelative="1.00" departed="0" arrived="0" entered="25" left="31" laneChangedFrom="0" laneChangedTo="0"/>
        <edge id="9/1to10/1" sampledSeconds="1559.14" traveltime="50.00" overlapTraveltime="50.25" density="26.52" laneDensity="26.52" occupancy="13.19" waitingTime="0.00" timeLoss="0.00" speed="19.60" speedRelative="1.00" departed="0" arrived="0" entered="31" left="31" laneChangedFrom="0" laneChangedTo="0"/>
    </interval>
    <interval begin="600.00" end="660.00" id="dump_60">
        <edge id="1/1to2/1" sampledSeconds="1559.14" traveltime="50.00" overlapTraveltime="50.25" density="26.52" laneDensity="26.52" occupancy="13.19" waitingTime="0.00" timeLoss="0.00" speed="19.60" speedRelative="1.00" departed="0" arrived="0" entered="31" left="31" laneChangedFrom="0" laneChangedTo="0"/>
        <edge id="10/1to1/1" sampledSeconds="1559.22" traveltime="50.00" overlapTraveltime="50.25" density="26.52" laneDensity="26.52" occupancy="13.19" waitingTime="0.00" timeLoss="0.00" speed="19.60" speedRelative="1.00" departed="0" arrived="0" entered="31" left="31" laneChangedFrom="0" laneChangedTo="0"/>
        <edge id="2/1to3/1" sampledSeconds="1562.50" traveltime="50.01" overlapTraveltime="50.27" density="26.57" laneDensity="26.57" occupancy="13.22" waitingTime="0.00" timeLoss="0.57" speed="19.59" speedRelative="1.00" departed="0" arrived="0" entered="31" left="31" laneChangedFrom="0" laneChangedTo="0"/>
        <edge id="3/1to4/1" sampledSeconds="1572.60" traveltime="50.02" overlapTraveltime="50.28" density="26.75" laneDensity="26.75" occupancy="13.31" waitingTime="0.00" timeLoss="0.81" speed="19.59" speedRelative="1.00" departed="0" arrived="0" entered="31" left="30" laneChangedFrom="0" laneChangedTo="0"/>
        <edge id="4/1to5/1" sampledSeconds="1242.48" traveltime="50.00" overlapTraveltime="50.26" density="21.13" laneDensity="21.13" occupancy="10.51" waitingTime="0.00" timeLoss="0.18" speed="19.60" speedRelative="1.00" departed="0" arrived="0" entered="30" left="18" laneChangedFrom="0" laneChangedTo="0"/>
        <edge id="5/1to6/1" sampledSeconds="896.35" traveltime="50.00" overlapTraveltime="50.25" density="15.25" laneDensity="15.25" occupancy="7.58" waitingTime="0.00" timeLoss="0.00" speed="19.60" speedRelative="1.00" departed="0" arrived="0" entered="18" left="18" laneChangedFrom="0" laneChangedTo="0"/>
        <edge id="6/1to7/1" sampledSeconds="896.39" traveltime="50.00" overlapTraveltime="50.25" density="15.25" laneDensity="15.25" occupancy="7.58" waitingTime="0.00" timeLoss="0.00" speed="19.60" speedRelative="1.00" departed="0" arrived="0" entered="18" left="18" laneChangedFrom="0" laneChangedTo="0"/>
        <edge id="7/1to8/1" sampledSeconds="893.32" traveltime="50.00" overlapTraveltime="50.25" density="15.19" laneDensity="15.19" occupancy="7.56" waitingTime="0.00" timeLoss="0.00" speed="19.60" speedRelative="1.00" departed="0" arrived="0" entered="18" left="18" laneChangedFrom="0" laneChangedTo="0"/>
        <edge id="8/1to9/1" sampledSeconds="960.85" traveltime="50.00" overlapTraveltime="50.25" density="16.34" laneDensity="16.34" occupancy="8.13" waitingTime="0.00" timeLoss="0.00" speed="19.60" speedRelative="1.00" departed="0" arrived="0" entered="18" left="23" laneChangedFrom="0" laneChangedTo="0"/>
        <edge id="9/1to10/1" sampledSeconds="1422.21" traveltime="50.00" overlapTraveltime="50.25" density="24.19" laneDensity="24.19" occupancy="12.04" waitingTime="0.00" timeLoss="0.00" speed="19.60" speedRelative="1.00" departed="0" arrived="0" entered="23" left="31" laneChangedFrom="0" laneChangedTo="0"/>
    </interval>
    <interval begin="660.00" end="720.00" id="dump_60">
        <edge id="1/1to2/1" sampledSeconds="1559.43" traveltime="50.00" overlapTraveltime="50.25" density="26.52" laneDensity="26.52" occupancy="13.19" waitingTime="0.00" timeLoss="0.00" speed="19.60" speedRelative="1.00" departed="0" arrived="0" entered="31" left="31" laneChangedFrom="0" laneChangedTo="0"/>
        <edge id="10/1to1/1" sampledSeconds="1334.36" traveltime="50.00" overlapTraveltime="50.25" density="22.69" laneDensity="22.69" occupancy="11.29" waitingTime="0.00" timeLoss="0.00" speed="19.60" speedRelative="1.00" departed="0" arrived="0" entered="21" left="31" laneChangedFrom="0" laneChangedTo="0"/>
        <edge id="2/1to3/1" sampledSeconds="1559.22" traveltime="50.00" overlapTraveltime="50.25" density="26.52" laneDensity="26.52" occupancy="13.19" waitingTime="0.00" timeLoss="0.00" speed="19.60" speedRelative="1.00" departed="0" arrived="0" entered="31" left="31" laneChangedFrom="0" laneChangedTo="0"/>
        <edge id="3/1to4/1" sampledSeconds="1562.13" traveltime="50.01" overlapTraveltime="50.27" density="26.57" laneDensity="26.57" occupancy="13.22" waitingTime="0.00" timeLoss="0.54" speed="19.59" speedRelative="1.00" departed="0" arrived="0" entered="31" left="31" laneChangedFrom="0" laneChangedTo="0"/>