<?xml version="1.0" encoding="UTF-8"?>

<!-- generated on 2025-10-05T22:18:26.878991+01:00 by Eclipse SUMO sumo v1_24_0+1161-f17fa579c60
<sumoConfiguration xmlns:xsi="http://www.w3.org/2001/XMLSchema-instance" xsi:noNamespaceSchemaLocation="http://sumo.dlr.de/xsd/sumoConfiguration.xsd">

    <input>
        <net-file value="net.net.xml"/>
        <route-files value="input_routes.rou.xml"/>
        <additional-files value="input_additional.add.xml"/>
    </input>

    <output>
        <vehroute-output value="vehroutes.xml"/>
    </output>

    <report>
        <duration-log.disable value="true"/>
        <no-step-log value="true"/>
    </report>

    <mesoscopic>
        <mesosim value="true"/>
    </mesoscopic>

</sumoConfiguration>
-->

<routes xmlns:xsi="http://www.w3.org/2001/XMLSchema-instance" xsi:noNamespaceSchemaLocation="http://sumo.dlr.de/xsd/routes_file.xsd">
    <vehicle id="bike_b.0" type="shared_bike" depart="0.00" arrival="18.00">
        <route edges="E0F0"/>
    </vehicle>

    <vehicle id="bike_b.1" type="shared_bike" depart="1.00" arrival="20.00">
        <route edges="E0F0"/>
    </vehicle>

    <vehicle id="train" type="train_short" depart="0.00" line="trainline" arrival="2902.00">
        <route edges="C0D0 D0E0 E0D0 D0C0 C0D0 D0E0 E0D0 D0C0 C0D0 D0E0 E0D0 D0C0 C0D0 D0E0 E0D0 D0C0 C0D0 D0E0 E0D0 D0C0 C0D0 D0E0 E0D0 D0C0 C0D0 D0E0 E0D0 D0C0 C0D0 D0E0 E0D0 D0C0 C0D0 D0E0 E0D0 D0C0 C0D0 D0E0 E0D0 D0C0 C0D0 D0E0 E0D0 D0C0"/>
        <stop busStop="ts_0" duration="10.00" until="90.00"/>
        <stop busStop="ts_1" duration="10.00" until="180.00"/>
        <stop busStop="ts_0" duration="10.00" until="360.00"/>
        <stop busStop="ts_1" duration="10.00" until="450.00"/>
        <stop busStop="ts_0" duration="10.00" until="630.00"/>
        <stop busStop="ts_1" duration="10.00" until="720.00"/>
        <stop busStop="ts_0" duration="10.00" until="900.00"/>
        <stop busStop="ts_1" duration="10.00" until="990.00"/>
        <stop busStop="ts_0" duration="10.00" until="1170.00"/>
        <stop busStop="ts_1" duration="10.00" until="1260.00"/>
        <stop busStop="ts_0" duration="10.00" until="1440.00"/>
        <stop busStop="ts_1" duration="10.00" until="1530.00"/>
        <stop busStop="ts_0" duration="10.00" until="1710.00"/>
        <stop busStop="ts_1" duration="10.00" until="1800.00"/>
        <stop busStop="ts_0" duration="10.00" until="1980.00"/>
        <stop busStop="ts_1" duration="10.00" until="2070.00"/>
        <stop busStop="ts_0" duration="10.00" until="2250.00"/>
        <stop busStop="ts_1" duration="10.00" until="2340.00"/>
        <stop busStop="ts_0" duration="10.00" until="2520.00"/>
        <stop busStop="ts_1" duration="10.00" until="2610.00"/>
        <stop busStop="ts_0" duration="10.00" until="2790.00"/>
        <stop busStop="ts_1" duration="10.00" until="2880.00"/>
    </vehicle>

</routes>
