<?xml version="1.0" encoding="UTF-8"?>

<!-- generated on Wed May  4 13:56:56 2016 by SUMO Version dev-SVN-r20637
<?xml version="1.0" encoding="UTF-8"?>

<configuration xmlns:xsi="http://www.w3.org/2001/XMLSchema-instance" xsi:noNamespaceSchemaLocation="http://sumo.dlr.de/xsd/sumoConfiguration.xsd">

    <input>
        <net-file value="net2.net.xml"/>
        <route-files value="input_routes.rou.xml"/>
    </input>

    <output>
        <tripinfo-output value="tripinfos.xml"/>
    </output>

    <report>
        <xml-validation value="never"/>
        <no-step-log value="true"/>
    </report>

</configuration>
-->

<tripinfos xmlns:xsi="http://www.w3.org/2001/XMLSchema-instance" xsi:noNamespaceSchemaLocation="http://sumo.dlr.de/xsd/tripinfo_file.xsd">
    <tripinfo id="stopped" depart="0.00" departLane="VODUGES_end_0" departPos="130.50" departSpeed="0.00" departDelay="0.00" arrival="74.00" arrivalLane="end2_0" arrivalPos="198.55" arrivalSpeed="13.26" duration="74.00" routeLength="214.75" waitSteps="50" timeLoss="57.76" rerouteNo="0" devices="tripinfo_stopped" vType="DEFAULT_VEHTYPE" vaporized=""/>
    <tripinfo id="overtaking" depart="0.00" departLane="VODUGES_end_0" departPos="100.00" departSpeed="0.00" departDelay="0.00" arrival="76.00" arrivalLane="end2_0" arrivalPos="198.55" arrivalSpeed="13.44" duration="76.00" routeLength="245.25" waitSteps="48" timeLoss="57.85" rerouteNo="0" devices="tripinfo_overtaking" vType="DEFAULT_VEHTYPE" vaporized=""/>
</tripinfos>
