<?xml version="1.0"?>

<!-- generated on 06/15/08 17:16:07 by SUMO sumo Version dev-SVN-r5553
<configuration>

   <input>
      <net-file>net.net.xml</net-file>
      <route-files>routes.rou.xml</route-files>
   </input>

   <output>
      <netstate-dump>netstate_dump.xml</netstate-dump>
   </output>

   <traffic_control_interface_(traci)_server>
      <remote-port>8893</remote-port>
      <penetration>1</penetration>
   </traffic_control_interface_(traci)_server>

</configuration>
-->

<sumo-netstate>
   <timestep time="1">
   </timestep>
</sumo-netstate>
