<?xml version="1.0" encoding="UTF-8"?>

<!-- generated on Fri Oct  5 22:04:05 2018 by Eclipse SUMO Version v1_0_1+0185-14bb101
This data file and the accompanying materials
are made available under the terms of the Eclipse Public License v2.0
which accompanies this distribution, and is available at
http://www.eclipse.org/legal/epl-v20.html
SPDX-License-Identifier: EPL-2.0
<configuration xmlns:xsi="http://www.w3.org/2001/XMLSchema-instance" xsi:noNamespaceSchemaLocation="https://sumo.dlr.de/xsd/sumoConfiguration.xsd">

    <input>
        <net-file value="net.net.xml"/>
        <route-files value="routes.rou.xml"/>
    </input>

    <output>
        <write-license value="true"/>
        <netstate-dump value="netstate_dump.xml"/>
    </output>

    <report>
        <xml-validation value="never"/>
        <no-step-log value="true"/>
    </report>

    <traci_server>
        <remote-port value="50634"/>
    </traci_server>

</configuration>
-->

<netstate xmlns:xsi="http://www.w3.org/2001/XMLSchema-instance" xsi:noNamespaceSchemaLocation="https://sumo.dlr.de/xsd/netstate_file.xsd">
    <timestep time="0.00">
        <edge id="e_m0">
            <lane id="e_m0_0">
                <vehicle id="veh0" pos="0.00" speed="0.00"/>
            </lane>
            <lane id="e_m0_1"/>
            <lane id="e_m0_2"/>
        </edge>
    </timestep>
    <timestep time="1.00">
        <edge id="e_m0">
            <lane id="e_m0_0">
                <vehicle id="veh0" pos="0.80" speed="0.80"/>
            </lane>
            <lane id="e_m0_1"/>
            <lane id="e_m0_2"/>
        </edge>
    </timestep>
    <timestep time="2.00">
        <edge id="e_m0">
            <lane id="e_m0_0">
                <vehicle id="veh0" pos="2.40" speed="1.60"/>
            </lane>
            <lane id="e_m0_1"/>
            <lane id="e_m0_2"/>
        </edge>
    </timestep>
    <timestep time="3.00">
        <edge id="e_m0">
            <lane id="e_m0_0">
                <vehicle id="veh0" pos="4.80" speed="2.40"/>
            </lane>
            <lane id="e_m0_1"/>
            <lane id="e_m0_2"/>
        </edge>
    </timestep>
    <timestep time="4.00">
        <edge id="e_m0">
            <lane id="e_m0_0">
                <vehicle id="veh0" pos="8.00" speed="3.20"/>
            </lane>
            <lane id="e_m0_1"/>
            <lane id="e_m0_2"/>
        </edge>
    </timestep>
    <timestep time="5.00">
        <edge id="e_m0">
            <lane id="e_m0_0"/>
            <lane id="e_m0_1">
                <vehicle id="veh0" pos="12.00" speed="4.00"/>
            </lane>
            <lane id="e_m0_2"/>
        </edge>
    </timestep>
    <timestep time="6.00">
        <edge id="e_m0">
            <lane id="e_m0_0"/>
            <lane id="e_m0_1">
                <vehicle id="veh0" pos="13.00" speed="1.00"/>
            </lane>
            <lane id="e_m0_2"/>
        </edge>
    </timestep>
    <timestep time="7.00">
        <edge id="e_m0">
            <lane id="e_m0_0"/>
            <lane id="e_m0_1">
                <vehicle id="veh0" pos="14.80" speed="1.80"/>
            </lane>
            <lane id="e_m0_2"/>
        </edge>
    </timestep>
    <timestep time="8.00">
        <edge id="e_m0">
            <lane id="e_m0_0"/>
            <lane id="e_m0_1">
                <vehicle id="veh0" pos="17.40" speed="2.60"/>
            </lane>
            <lane id="e_m0_2"/>
        </edge>
    </timestep>
    <timestep time="9.00">
        <edge id="e_m0">
            <lane id="e_m0_0"/>
            <lane id="e_m0_1">
                <vehicle id="veh0" pos="20.80" speed="3.40"/>
            </lane>
            <lane id="e_m0_2"/>
        </edge>
    </timestep>
    <timestep time="10.00">
        <edge id="e_m0">
            <lane id="e_m0_0"/>
            <lane id="e_m0_1">
                <vehicle id="veh0" pos="25.00" speed="4.20"/>
            </lane>
            <lane id="e_m0_2"/>
        </edge>
    </timestep>
    <timestep time="11.00">
        <edge id="e_m0">
            <lane id="e_m0_0">
                <vehicle id="veh0" pos="30.00" speed="5.00"/>
            </lane>
            <lane id="e_m0_1"/>
            <lane id="e_m0_2"/>
        </edge>
    </timestep>
</netstate>
