<?xml version="1.0" encoding="UTF-8"?>

<!-- generated on Tue Mar 25 15:19:00 2014 by SUMO sumo Version dev-SVN-r16023
<?xml version="1.0" encoding="UTF-8"?>

<configuration xmlns:xsi="http://www.w3.org/2001/XMLSchema-instance" xsi:noNamespaceSchemaLocation="http://sumo-sim.org/xsd/sumoConfiguration.xsd">

    <input>
        <net-file value="motorway.net.xml"/>
        <route-files value="input_routes.rou.xml"/>
        <additional-files value="input_additional.add.xml"/>
    </input>

    <processing>
        <max-depart-delay value="1"/>
    </processing>

    <report>
        <xml-validation value="never"/>
        <no-duration-log value="true"/>
        <no-step-log value="true"/>
    </report>

</configuration>
-->

<detector xmlns:xsi="http://www.w3.org/2001/XMLSchema-instance" xsi:noNamespaceSchemaLocation="http://sumo-sim.org/xsd/det_e1_file.xsd">
   <interval begin="0.00" end="900.00" id="beg2_0" nVehContrib="24" flow="96.00" occupancy="0.67" speed="20.00" length="5.00" nVehEntered="404"/>
   <interval begin="0.00" end="900.00" id="beg2_1" nVehContrib="24" flow="96.00" occupancy="0.67" speed="20.00" length="5.00" nVehEntered="404"/>
   <interval begin="900.00" end="1051.00" id="beg2_0" nVehContrib="0" flow="0.00" occupancy="0.00" speed="-1.00" length="-1.00" nVehEntered="76"/>
   <interval begin="900.00" end="1051.00" id="beg2_1" nVehContrib="0" flow="0.00" occupancy="0.00" speed="-1.00" length="-1.00" nVehEntered="76"/>
</detector>
