<?xml version="1.0"?>

<!-- generated on 04/29/09 15:27:57 by SUMO sumo Version dev-SVN-r7092
<configuration>

   <input>
      <net-file>net.net.xml</net-file>
      <additional-files>input_routes.rou.xml,input_additional.add.xml,input_additional2.add.xml</additional-files>
   </input>

   <time>
      <begin>0</begin>
      <end>1000</end>
   </time>

   <processing>
      <no-duration-log>true</no-duration-log>
      <no-step-log>true</no-step-log>
   </processing>

</configuration>
-->

<detector>
   <interval begin="0" end="100" id="3/1to2/1" nVehContrib="2" flow="72.00" occupancy="1.06" speed="9.50" length="5.00" nVehEntered="2"/>
   <interval begin="100" end="200" id="3/1to2/1" nVehContrib="0" flow="0.00" occupancy="0.00" speed="-1.00" length="-1.00" nVehEntered="0"/>
   <interval begin="200" end="300" id="3/1to2/1" nVehContrib="0" flow="0.00" occupancy="0.00" speed="-1.00" length="-1.00" nVehEntered="0"/>
   <interval begin="300" end="400" id="3/1to2/1" nVehContrib="0" flow="0.00" occupancy="0.00" speed="-1.00" length="-1.00" nVehEntered="0"/>
   <interval begin="400" end="500" id="3/1to2/1" nVehContrib="0" flow="0.00" occupancy="0.00" speed="-1.00" length="-1.00" nVehEntered="0"/>
   <interval begin="500" end="600" id="3/1to2/1" nVehContrib="0" flow="0.00" occupancy="0.00" speed="-1.00" length="-1.00" nVehEntered="0"/>
   <interval begin="600" end="700" id="3/1to2/1" nVehContrib="0" flow="0.00" occupancy="0.00" speed="-1.00" length="-1.00" nVehEntered="0"/>
   <interval begin="700" end="800" id="3/1to2/1" nVehContrib="0" flow="0.00" occupancy="0.00" speed="-1.00" length="-1.00" nVehEntered="0"/>
   <interval begin="800" end="900" id="3/1to2/1" nVehContrib="0" flow="0.00" occupancy="0.00" speed="-1.00" length="-1.00" nVehEntered="0"/>
   <interval begin="900" end="1000" id="3/1to2/1" nVehContrib="0" flow="0.00" occupancy="0.00" speed="-1.00" length="-1.00" nVehEntered="0"/>
   <interval begin="1000" end="1001" id="3/1to2/1" nVehContrib="0" flow="0.00" occupancy="0.00" speed="-1.00" length="-1.00" nVehEntered="0"/>
</detector>
