<?xml version="1.0" encoding="UTF-8"?>

<!-- generated on Fri Jun  6 13:06:42 2014 by SUMO sumo Version dev-SVN-r16550
<?xml version="1.0" encoding="UTF-8"?>

<configuration xmlns:xsi="http://www.w3.org/2001/XMLSchema-instance" xsi:noNamespaceSchemaLocation="http://sumo.dlr.de/xsd/sumoConfiguration.xsd">

    <input>
        <net-file value="net.net.xml"/>
        <additional-files value="input_routes.rou.xml,input_additional.add.xml,input_additional2.add.xml"/>
    </input>

    <time>
        <begin value="0"/>
        <end value="100"/>
    </time>

    <report>
        <xml-validation value="never"/>
        <no-duration-log value="true"/>
        <no-step-log value="true"/>
    </report>

    <mesoscopic>
        <mesosim value="true"/>
    </mesoscopic>

</configuration>
-->

<detector>
    <interval begin="0.00" end="100.00" id="3/1to2/1" sampledSeconds="21.11" density="2.11" occupancy="0.63" waitingTime="0.00" speed="9.47" departed="0" arrived="0" entered="2" left="2"/>
</detector>
