<?xml version="1.0"?>

<!-- generated on 12/14/07 13:50:19 by SUMO sumo Version 0.9.7
<configuration>

   <input>
      <net-file>net.net.xml</net-file>
      <additional-files>input_routes.rou.xml,input_additional.add.xml,input_additional2.add.xml</additional-files>
   </input>

   <time>
      <begin>0</begin>
      <end>1000</end>
   </time>

   <processing>
      <no-duration-log>true</no-duration-log>
      <no-step-log>true</no-step-log>
   </processing>

</configuration>
-->

<detector>
   <interval begin="0" end="99" id="3/1to2/1" nVehContrib="2.00" flow="72.00" occupancy="0.01" speed="9.50" length="5.00" nVehCrossed="2"/>
   <interval begin="100" end="125" id="3/1to2/1" nVehContrib="0.00" flow="0.00" occupancy="0.00" speed="-1.00" length="-1.00" nVehCrossed="0"/>
</detector>
