<?xml version="1.0"?>

<!-- generated on 04/26/10 10:09:52 by SUMO sumo Version dev-SVN-r8163
<configuration>

    <input>
        <net-file value="three_split.net.xml"/>
        <additional-files value="input_routes.rou.xml,input_additional.add.xml"/>
    </input>

    <output>
        <vehroute-output value="vehroutes.xml"/>
    </output>

    <report>
        <no-duration-log value="true"/>
        <no-step-log value="true"/>
    </report>

</configuration>
-->

<routes>
    <vehicle id="emitter_0.00_0" depart="0.00" arrival="163.00">
        <routeDistribution>
            <route replacedOnEdge="beg" replacedAtTime="0.00" probability="0" edges="beg middle end rend"/>
            <route edges="beg beg2left left left2end end"/>
        </routeDistribution>
    </vehicle>

    <vehicle id="emitter_20.00_1" depart="20.00" arrival="183.00">
        <routeDistribution>
            <route replacedOnEdge="beg" replacedAtTime="20.00" probability="0" edges="beg middle end rend"/>
            <route edges="beg beg2left left left2end end"/>
        </routeDistribution>
    </vehicle>

    <vehicle id="emitter_40.00_2" depart="40.00" arrival="203.00">
        <routeDistribution>
            <route replacedOnEdge="beg" replacedAtTime="40.00" probability="0" edges="beg middle end rend"/>
            <route edges="beg beg2left left left2end end"/>
        </routeDistribution>
    </vehicle>

    <vehicle id="emitter_60.00_3" depart="60.00" arrival="223.00">
        <routeDistribution>
            <route replacedOnEdge="beg" replacedAtTime="60.00" probability="0" edges="beg middle end rend"/>
            <route edges="beg beg2left left left2end end"/>
        </routeDistribution>
    </vehicle>

    <vehicle id="emitter_80.00_4" depart="80.00" arrival="243.00">
        <routeDistribution>
            <route replacedOnEdge="beg" replacedAtTime="80.00" probability="0" edges="beg middle end rend"/>
            <route edges="beg beg2left left left2end end"/>
        </routeDistribution>
    </vehicle>

    <vehicle id="emitter_100.00_5" depart="100.00" arrival="263.00">
        <routeDistribution>
            <route replacedOnEdge="beg" replacedAtTime="100.00" probability="0" edges="beg middle end rend"/>
            <route edges="beg beg2left left left2end end"/>
        </routeDistribution>
    </vehicle>

    <vehicle id="emitter_120.00_6" depart="120.00" arrival="283.00">
        <routeDistribution>
            <route replacedOnEdge="beg" replacedAtTime="120.00" probability="0" edges="beg middle end rend"/>
            <route edges="beg beg2left left left2end end"/>
        </routeDistribution>
    </vehicle>

    <vehicle id="emitter_140.00_7" depart="140.00" arrival="303.00">
        <routeDistribution>
            <route replacedOnEdge="beg" replacedAtTime="140.00" probability="0" edges="beg middle end rend"/>
            <route edges="beg beg2left left left2end end"/>
        </routeDistribution>
    </vehicle>

    <vehicle id="emitter_160.00_8" depart="160.00" arrival="323.00">
        <routeDistribution>
            <route replacedOnEdge="beg" replacedAtTime="160.00" probability="0" edges="beg middle end rend"/>
            <route edges="beg beg2left left left2end end"/>
        </routeDistribution>
    </vehicle>

    <vehicle id="emitter_180.00_9" depart="180.00" arrival="343.00">
        <routeDistribution>
            <route replacedOnEdge="beg" replacedAtTime="180.00" probability="0" edges="beg middle end rend"/>
            <route edges="beg beg2left left left2end end"/>
        </routeDistribution>
    </vehicle>

</routes>
