<?xml version="1.0" encoding="UTF-8"?>

<!-- generated on Thu Aug 27 07:13:33 2015 by SUMO Version dev-SVN-r18733I
<?xml version="1.0" encoding="UTF-8"?>

<configuration xmlns:xsi="http://www.w3.org/2001/XMLSchema-instance" xsi:noNamespaceSchemaLocation="http://sumo.dlr.de/xsd/sumoConfiguration.xsd">

    <input>
        <net-file value="net2.net.xml"/>
        <route-files value="input_routes.rou.xml"/>
        <additional-files value="input_additional.add.xml"/>
    </input>

    <output>
        <tripinfo-output value="tripinfos.xml"/>
    </output>

    <report>
        <xml-validation value="never"/>
        <no-duration-log value="true"/>
        <no-step-log value="true"/>
    </report>

    <mesoscopic>
        <mesosim value="true"/>
    </mesoscopic>

</configuration>
-->

<tripinfos xmlns:xsi="http://www.w3.org/2001/XMLSchema-instance" xsi:noNamespaceSchemaLocation="http://sumo.dlr.de/xsd/tripinfo_file.xsd">
    <tripinfo id="v0" depart="0.00" departLane="" departPos="0.00" departSpeed="15.28" departDelay="0.00" arrival="7.00" arrivalLane="" arrivalPos="0.00" arrivalSpeed="15.28" duration="7.00" routeLength="0.00" waitSteps="0" timeLoss="0.00" rerouteNo="0" devices="tripinfo_v0" vType="t0" vaporized=""/>
    <tripinfo id="v1" depart="0.00" departLane="" departPos="0.00" departSpeed="15.28" departDelay="0.00" arrival="7.00" arrivalLane="" arrivalPos="0.00" arrivalSpeed="15.28" duration="7.00" routeLength="0.00" waitSteps="0" timeLoss="0.00" rerouteNo="1" devices="tripinfo_v1" vType="t0" vaporized=""/>
</tripinfos>
