<?xml version="1.0" encoding="UTF-8"?>

<!-- generated on Thu Nov 17 15:45:45 2016 by SUMO Version dev-SVN-r22052
<?xml version="1.0" encoding="UTF-8"?>

<configuration xmlns:xsi="http://www.w3.org/2001/XMLSchema-instance" xsi:noNamespaceSchemaLocation="http://sumo.dlr.de/xsd/sumoConfiguration.xsd">

    <input>
        <net-file value="net2.net.xml"/>
        <route-files value="input_routes.rou.xml"/>
    </input>

    <output>
        <fcd-output value="fcd.xml"/>
        <tripinfo-output value="tripinfos.xml"/>
    </output>

    <time>
        <step-length value="0.2"/>
    </time>

    <report>
        <xml-validation value="never"/>
        <no-step-log value="true"/>
    </report>

</configuration>
-->

<fcd-export xmlns:xsi="http://www.w3.org/2001/XMLSchema-instance" xsi:noNamespaceSchemaLocation="http://sumo.dlr.de/xsd/fcd_file.xsd">
    <timestep time="0.00">
        <vehicle id="overtaking" x="0.00" y="-1.65" angle="90.00" type="DEFAULT_VEHTYPE" speed="0.00" pos="0.00" lane="VODUGES_beg_0" slope="0.00"/>
        <vehicle id="stopped" x="40.00" y="-1.65" angle="90.00" type="DEFAULT_VEHTYPE" speed="0.00" pos="40.00" lane="VODUGES_beg_0" slope="0.00"/>
    </timestep>
    <timestep time="0.20">
        <vehicle id="overtaking" x="0.10" y="-1.65" angle="90.00" type="DEFAULT_VEHTYPE" speed="0.48" pos="0.10" lane="VODUGES_beg_0" slope="0.00"/>
        <vehicle id="stopped" x="40.09" y="-1.65" angle="90.00" type="DEFAULT_VEHTYPE" speed="0.47" pos="40.09" lane="VODUGES_beg_0" slope="0.00"/>
    </timestep>
    <timestep time="0.40">
        <vehicle id="overtaking" x="0.29" y="-1.65" angle="90.00" type="DEFAULT_VEHTYPE" speed="0.95" pos="0.29" lane="VODUGES_beg_0" slope="0.00"/>
        <vehicle id="stopped" x="40.29" y="-1.65" angle="90.00" type="DEFAULT_VEHTYPE" speed="0.99" pos="40.29" lane="VODUGES_beg_0" slope="0.00"/>
    </timestep>
    <timestep time="0.60">
        <vehicle id="overtaking" x="0.58" y="-1.65" angle="90.00" type="DEFAULT_VEHTYPE" speed="1.47" pos="0.58" lane="VODUGES_beg_0" slope="0.00"/>
        <vehicle id="stopped" x="40.58" y="-1.65" angle="90.00" type="DEFAULT_VEHTYPE" speed="1.42" pos="40.58" lane="VODUGES_beg_0" slope="0.00"/>
    </timestep>
    <timestep time="0.80">
        <vehicle id="overtaking" x="0.97" y="-1.65" angle="90.00" type="DEFAULT_VEHTYPE" speed="1.94" pos="0.97" lane="VODUGES_beg_0" slope="0.00"/>
        <vehicle id="stopped" x="40.94" y="-1.65" angle="90.00" type="DEFAULT_VEHTYPE" speed="1.80" pos="40.94" lane="VODUGES_beg_0" slope="0.00"/>
    </timestep>
    <timestep time="1.00">
        <vehicle id="overtaking" x="1.42" y="-1.65" angle="90.00" type="DEFAULT_VEHTYPE" speed="2.27" pos="1.42" lane="VODUGES_beg_0" slope="0.00"/>
        <vehicle id="stopped" x="41.37" y="-1.65" angle="90.00" type="DEFAULT_VEHTYPE" speed="2.19" pos="41.37" lane="VODUGES_beg_0" slope="0.00"/>
    </timestep>
    <timestep time="1.20">
        <vehicle id="overtaking" x="1.95" y="-1.65" angle="90.00" type="DEFAULT_VEHTYPE" speed="2.62" pos="1.95" lane="VODUGES_beg_0" slope="0.00"/>
        <vehicle id="stopped" x="41.92" y="-1.65" angle="90.00" type="DEFAULT_VEHTYPE" speed="2.71" pos="41.92" lane="VODUGES_beg_0" slope="0.00"/>
    </timestep>
    <timestep time="1.40">
        <vehicle id="overtaking" x="2.55" y="-1.65" angle="90.00" type="DEFAULT_VEHTYPE" speed="3.02" pos="2.55" lane="VODUGES_beg_0" slope="0.00"/>
        <vehicle id="stopped" x="42.41" y="-1.65" angle="90.00" type="DEFAULT_VEHTYPE" speed="2.47" pos="42.41" lane="VODUGES_beg_0" slope="0.00"/>
    </timestep>
    <timestep time="1.60">
        <vehicle id="overtaking" x="3.25" y="-1.65" angle="90.00" type="DEFAULT_VEHTYPE" speed="3.47" pos="3.25" lane="VODUGES_beg_0" slope="0.00"/>
        <vehicle id="stopped" x="42.83" y="-1.65" angle="90.00" type="DEFAULT_VEHTYPE" speed="2.11" pos="42.83" lane="VODUGES_beg_0" slope="0.00"/>
    </timestep>
    <timestep time="1.80">
        <vehicle id="overtaking" x="4.00" y="-1.65" angle="90.00" type="DEFAULT_VEHTYPE" speed="3.77" pos="4.00" lane="VODUGES_beg_0" slope="0.00"/>
        <vehicle id="stopped" x="43.22" y="-1.65" angle="90.00" type="DEFAULT_VEHTYPE" speed="1.92" pos="43.22" lane="VODUGES_beg_0" slope="0.00"/>
    </timestep>
    <timestep time="2.00">
        <vehicle id="overtaking" x="4.82" y="-1.65" angle="90.00" type="DEFAULT_VEHTYPE" speed="4.11" pos="4.82" lane="VODUGES_beg_0" slope="0.00"/>
        <vehicle id="stopped" x="43.53" y="-1.65" angle="90.00" type="DEFAULT_VEHTYPE" speed="1.58" pos="43.53" lane="VODUGES_beg_0" slope="0.00"/>
    </timestep>
    <timestep time="2.20">
        <vehicle id="overtaking" x="5.72" y="-1.65" angle="90.00" type="DEFAULT_VEHTYPE" speed="4.49" pos="5.72" lane="VODUGES_beg_0" slope="0.00"/>
        <vehicle id="stopped" x="43.81" y="-1.65" angle="90.00" type="DEFAULT_VEHTYPE" speed="1.37" pos="43.81" lane="VODUGES_beg_0" slope="0.00"/>
    </timestep>
    <timestep time="2.40">
        <vehicle id="overtaking" x="6.69" y="-1.65" angle="90.00" type="DEFAULT_VEHTYPE" speed="4.85" pos="6.69" lane="VODUGES_beg_0" slope="0.00"/>
        <vehicle id="stopped" x="44.03" y="-1.65" angle="90.00" type="DEFAULT_VEHTYPE" speed="1.11" pos="44.03" lane="VODUGES_beg_0" slope="0.00"/>
    </timestep>
    <timestep time="2.60">
        <vehicle id="overtaking" x="7.72" y="-1.65" angle="90.00" type="DEFAULT_VEHTYPE" speed="5.16" pos="7.72" lane="VODUGES_beg_0" slope="0.00"/>
        <vehicle id="stopped" x="44.20" y="-1.65" angle="90.00" type="DEFAULT_VEHTYPE" speed="0.87" pos="44.20" lane="VODUGES_beg_0" slope="0.00"/>
    </timestep>
    <timestep time="2.80">
        <vehicle id="overtaking" x="8.84" y="-1.65" angle="90.00" type="DEFAULT_VEHTYPE" speed="5.57" pos="8.84" lane="VODUGES_beg_0" slope="0.00"/>
        <vehicle id="stopped" x="44.37" y="-1.65" angle="90.00" type="DEFAULT_VEHTYPE" speed="0.82" pos="44.37" lane="VODUGES_beg_0" slope="0.00"/>
    </timestep>
    <timestep time="3.00">
        <vehicle id="overtaking" x="10.04" y="-1.65" angle="90.00" type="DEFAULT_VEHTYPE" speed="6.03" pos="10.04" lane="VODUGES_beg_0" slope="0.00"/>
        <vehicle id="stopped" x="44.54" y="-1.65" angle="90.00" type="DEFAULT_VEHTYPE" speed="0.85" pos="44.54" lane="VODUGES_beg_0" slope="0.00"/>
    </timestep>
    <timestep time="3.20">
        <vehicle id="overtaking" x="11.34" y="-1.65" angle="90.00" type="DEFAULT_VEHTYPE" speed="6.47" pos="11.34" lane="VODUGES_beg_0" slope="0.00"/>
        <vehicle id="stopped" x="44.72" y="-1.65" angle="90.00" type="DEFAULT_VEHTYPE" speed="0.90" pos="44.72" lane="VODUGES_beg_0" slope="0.00"/>
    </timestep>
    <timestep time="3.40">
        <vehicle id="overtaking" x="12.73" y="-1.65" angle="90.00" type="DEFAULT_VEHTYPE" speed="6.95" pos="12.73" lane="VODUGES_beg_0" slope="0.00"/>
        <vehicle id="stopped" x="44.88" y="-1.65" angle="90.00" type="DEFAULT_VEHTYPE" speed="0.83" pos="44.88" lane="VODUGES_beg_0" slope="0.00"/>
    </timestep>
    <timestep time="3.60">
        <vehicle id="overtaking" x="14.22" y="-1.65" angle="90.00" type="DEFAULT_VEHTYPE" speed="7.46" pos="14.22" lane="VODUGES_beg_0" slope="0.00"/>
        <vehicle id="stopped" x="44.99" y="-1.65" angle="90.00" type="DEFAULT_VEHTYPE" speed="0.54" pos="44.99" lane="VODUGES_beg_0" slope="0.00"/>
    </timestep>
    <timestep time="3.80">
        <vehicle id="overtaking" x="15.80" y="-1.65" angle="90.00" type="DEFAULT_VEHTYPE" speed="7.90" pos="15.80" lane="VODUGES_beg_0" slope="0.00"/>
        <vehicle id="stopped" x="45.00" y="-1.65" angle="90.00" type="DEFAULT_VEHTYPE" speed="0.05" pos="45.00" lane="VODUGES_beg_0" slope="0.00"/>
    </timestep>
    <timestep time="4.00">
        <vehicle id="overtaking" x="17.48" y="-1.65" angle="90.00" type="DEFAULT_VEHTYPE" speed="8.38" pos="17.48" lane="VODUGES_beg_0" slope="0.00"/>
        <vehicle id="stopped" x="45.00" y="-1.65" angle="90.00" type="DEFAULT_VEHTYPE" speed="0.00" pos="45.00" lane="VODUGES_beg_0" slope="0.00"/>
    </timestep>
    <timestep time="4.20">
        <vehicle id="overtaking" x="19.21" y="-1.65" angle="90.00" type="DEFAULT_VEHTYPE" speed="8.65" pos="19.21" lane="VODUGES_beg_0" slope="0.00"/>
        <vehicle id="stopped" x="45.00" y="-1.65" angle="90.00" type="DEFAULT_VEHTYPE" speed="0.00" pos="45.00" lane="VODUGES_beg_0" slope="0.00"/>
    </timestep>
    <timestep time="4.40">
        <vehicle id="overtaking" x="21.03" y="-1.65" angle="90.00" type="DEFAULT_VEHTYPE" speed="9.12" pos="21.03" lane="VODUGES_beg_0" slope="0.00"/>
        <vehicle id="stopped" x="45.00" y="-1.65" angle="90.00" type="DEFAULT_VEHTYPE" speed="0.00" pos="45.00" lane="VODUGES_beg_0" slope="0.00"/>
    </timestep>
    <timestep time="4.60">
        <vehicle id="overtaking" x="22.76" y="-1.65" angle="90.00" type="DEFAULT_VEHTYPE" speed="8.63" pos="22.76" lane="VODUGES_beg_0" slope="0.00"/>
        <vehicle id="stopped" x="45.00" y="-1.65" angle="90.00" type="DEFAULT_VEHTYPE" speed="0.00" pos="45.00" lane="VODUGES_beg_0" slope="0.00"/>
    </timestep>
    <timestep time="4.80">
        <vehicle id="overtaking" x="24.34" y="1.65" angle="90.00" type="DEFAULT_VEHTYPE" speed="7.95" pos="20.91" lane="-VODUGES_beg_0" slope="0.00"/>
        <vehicle id="stopped" x="45.00" y="-1.65" angle="90.00" type="DEFAULT_VEHTYPE" speed="0.00" pos="45.00" lane="VODUGES_beg_0" slope="0.00"/>
    </timestep>
    <timestep time="5.00">
        <vehicle id="overtaking" x="26.03" y="1.65" angle="90.00" type="DEFAULT_VEHTYPE" speed="8.44" pos="19.22" lane="-VODUGES_beg_0" slope="0.00"/>
        <vehicle id="stopped" x="45.00" y="-1.65" angle="90.00" type="DEFAULT_VEHTYPE" speed="0.00" pos="45.00" lane="VODUGES_beg_0" slope="0.00"/>
    </timestep>
    <timestep time="5.20">
        <vehicle id="overtaking" x="27.79" y="1.65" angle="90.00" type="DEFAULT_VEHTYPE" speed="8.78" pos="17.46" lane="-VODUGES_beg_0" slope="0.00"/>
        <vehicle id="stopped" x="45.00" y="-1.65" angle="90.00" type="DEFAULT_VEHTYPE" speed="0.00" pos="45.00" lane="VODUGES_beg_0" slope="0.00"/>
    </timestep>
    <timestep time="5.40">
        <vehicle id="overtaking" x="29.61" y="1.65" angle="90.00" type="DEFAULT_VEHTYPE" speed="9.12" pos="15.64" lane="-VODUGES_beg_0" slope="0.00"/>
        <vehicle id="stopped" x="45.00" y="-1.65" angle="90.00" type="DEFAULT_VEHTYPE" speed="0.00" pos="45.00" lane="VODUGES_beg_0" slope="0.00"/>
    </timestep>
    <timestep time="5.60">
        <vehicle id="overtaking" x="31.49" y="1.65" angle="90.00" type="DEFAULT_VEHTYPE" speed="9.39" pos="13.76" lane="-VODUGES_beg_0" slope="0.00"/>
        <vehicle id="stopped" x="45.00" y="-1.65" angle="90.00" type="DEFAULT_VEHTYPE" speed="0.00" pos="45.00" lane="VODUGES_beg_0" slope="0.00"/>
    </timestep>
    <timestep time="5.80">
        <vehicle id="overtaking" x="33.45" y="1.65" angle="90.00" type="DEFAULT_VEHTYPE" speed="9.78" pos="11.80" lane="-VODUGES_beg_0" slope="0.00"/>
        <vehicle id="stopped" x="45.00" y="-1.65" angle="90.00" type="DEFAULT_VEHTYPE" speed="0.00" pos="45.00" lane="VODUGES_beg_0" slope="0.00"/>
    </timestep>
    <timestep time="6.00">
        <vehicle id="overtaking" x="35.50" y="1.65" angle="90.00" type="DEFAULT_VEHTYPE" speed="10.26" pos="9.75" lane="-VODUGES_beg_0" slope="0.00"/>
        <vehicle id="stopped" x="45.00" y="-1.65" angle="90.00" type="DEFAULT_VEHTYPE" speed="0.00" pos="45.00" lane="VODUGES_beg_0" slope="0.00"/>
    </timestep>
    <timestep time="6.20">
        <vehicle id="overtaking" x="37.64" y="1.65" angle="90.00" type="DEFAULT_VEHTYPE" speed="10.73" pos="7.61" lane="-VODUGES_beg_0" slope="0.00"/>
        <vehicle id="stopped" x="45.00" y="-1.65" angle="90.00" type="DEFAULT_VEHTYPE" speed="0.00" pos="45.00" lane="VODUGES_beg_0" slope="0.00"/>
    </timestep>
    <timestep time="6.40">
        <vehicle id="overtaking" x="39.89" y="1.65" angle="90.00" type="DEFAULT_VEHTYPE" speed="11.21" pos="5.36" lane="-VODUGES_beg_0" slope="0.00"/>
        <vehicle id="stopped" x="45.00" y="-1.65" angle="90.00" type="DEFAULT_VEHTYPE" speed="0.00" pos="45.00" lane="VODUGES_beg_0" slope="0.00"/>
    </timestep>
    <timestep time="6.60">
        <vehicle id="overtaking" x="42.22" y="1.65" angle="90.00" type="DEFAULT_VEHTYPE" speed="11.66" pos="3.03" lane="-VODUGES_beg_0" slope="0.00"/>
        <vehicle id="stopped" x="45.00" y="-1.65" angle="90.00" type="DEFAULT_VEHTYPE" speed="0.00" pos="45.00" lane="VODUGES_beg_0" slope="0.00"/>
    </timestep>
    <timestep time="6.80">
        <vehicle id="overtaking" x="44.60" y="1.65" angle="90.00" type="DEFAULT_VEHTYPE" speed="11.94" pos="0.65" lane="-VODUGES_beg_0" slope="0.00"/>
        <vehicle id="stopped" x="45.00" y="-1.65" angle="90.00" type="DEFAULT_VEHTYPE" speed="0.00" pos="45.00" lane="VODUGES_beg_0" slope="0.00"/>
    </timestep>
    <timestep time="7.00">
        <vehicle id="overtaking" x="47.09" y="1.65" angle="90.00" type="DEFAULT_VEHTYPE" speed="12.41" pos="7.66" lane=":C_3_0" slope="0.00"/>
        <vehicle id="stopped" x="45.00" y="-1.65" angle="90.00" type="DEFAULT_VEHTYPE" speed="0.00" pos="45.00" lane="VODUGES_beg_0" slope="0.00"/>
    </timestep>
    <timestep time="7.20">
        <vehicle id="overtaking" x="49.66" y="1.65" angle="90.00" type="DEFAULT_VEHTYPE" speed="12.85" pos="5.09" lane=":C_3_0" slope="0.00"/>
        <vehicle id="stopped" x="45.00" y="-1.65" angle="90.00" type="DEFAULT_VEHTYPE" speed="0.00" pos="45.00" lane="VODUGES_beg_0" slope="0.00"/>
    </timestep>
    <timestep time="7.40">
        <vehicle id="overtaking" x="52.32" y="1.65" angle="90.00" type="DEFAULT_VEHTYPE" speed="13.35" pos="2.43" lane=":C_3_0" slope="0.00"/>
        <vehicle id="stopped" x="45.00" y="-1.65" angle="90.00" type="DEFAULT_VEHTYPE" speed="0.00" pos="45.00" lane="VODUGES_beg_0" slope="0.00"/>
    </timestep>
    <timestep time="7.60">
        <vehicle id="overtaking" x="55.09" y="-1.65" angle="90.00" type="DEFAULT_VEHTYPE" speed="13.81" pos="0.34" lane="VODUGES_end_0" slope="0.00"/>
        <vehicle id="stopped" x="45.00" y="-1.65" angle="90.00" type="DEFAULT_VEHTYPE" speed="0.00" pos="45.00" lane="VODUGES_beg_0" slope="0.00"/>
    </timestep>
    <timestep time="7.80">
        <vehicle id="overtaking" x="57.86" y="-1.65" angle="90.00" type="DEFAULT_VEHTYPE" speed="13.88" pos="3.11" lane="VODUGES_end_0" slope="0.00"/>
        <vehicle id="stopped" x="45.00" y="-1.65" angle="90.00" type="DEFAULT_VEHTYPE" speed="0.00" pos="45.00" lane="VODUGES_beg_0" slope="0.00"/>
    </timestep>
    <timestep time="8.00">
        <vehicle id="overtaking" x="60.60" y="-1.65" angle="90.00" type="DEFAULT_VEHTYPE" speed="13.70" pos="5.85" lane="VODUGES_end_0" slope="0.00"/>
        <vehicle id="stopped" x="45.00" y="-1.65" angle="90.00" type="DEFAULT_VEHTYPE" speed="0.00" pos="45.00" lane="VODUGES_beg_0" slope="0.00"/>
    </timestep>
    <timestep time="8.20">
        <vehicle id="overtaking" x="63.37" y="-1.65" angle="90.00" type="DEFAULT_VEHTYPE" speed="13.81" pos="8.62" lane="VODUGES_end_0" slope="0.00"/>
        <vehicle id="stopped" x="45.00" y="-1.65" angle="90.00" type="DEFAULT_VEHTYPE" speed="0.00" pos="45.00" lane="VODUGES_beg_0" slope="0.00"/>
    </timestep>
    <timestep time="8.40">
        <vehicle id="overtaking" x="66.11" y="-1.65" angle="90.00" type="DEFAULT_VEHTYPE" speed="13.71" pos="11.36" lane="VODUGES_end_0" slope="0.00"/>
        <vehicle id="stopped" x="45.00" y="-1.65" angle="90.00" type="DEFAULT_VEHTYPE" speed="0.00" pos="45.00" lane="VODUGES_beg_0" slope="0.00"/>
    </timestep>
    <timestep time="8.60">
        <vehicle id="overtaking" x="68.85" y="-1.65" angle="90.00" type="DEFAULT_VEHTYPE" speed="13.73" pos="14.10" lane="VODUGES_end_0" slope="0.00"/>
        <vehicle id="stopped" x="45.00" y="-1.65" angle="90.00" type="DEFAULT_VEHTYPE" speed="0.00" pos="45.00" lane="VODUGES_beg_0" slope="0.00"/>
    </timestep>
    <timestep time="8.80">
        <vehicle id="overtaking" x="71.61" y="-1.65" angle="90.00" type="DEFAULT_VEHTYPE" speed="13.76" pos="16.86" lane="VODUGES_end_0" slope="0.00"/>
        <vehicle id="stopped" x="45.00" y="-1.65" angle="90.00" type="DEFAULT_VEHTYPE" speed="0.00" pos="45.00" lane="VODUGES_beg_0" slope="0.00"/>
    </timestep>
    <timestep time="9.00">
        <vehicle id="overtaking" x="74.35" y="-1.65" angle="90.00" type="DEFAULT_VEHTYPE" speed="13.74" pos="19.60" lane="VODUGES_end_0" slope="0.00"/>
        <vehicle id="stopped" x="45.00" y="-1.65" angle="90.00" type="DEFAULT_VEHTYPE" speed="0.00" pos="45.00" lane="VODUGES_beg_0" slope="0.00"/>
    </timestep>
    <timestep time="9.20">
        <vehicle id="overtaking" x="77.11" y="-1.65" angle="90.00" type="DEFAULT_VEHTYPE" speed="13.80" pos="22.36" lane="VODUGES_end_0" slope="0.00"/>
        <vehicle id="stopped" x="45.00" y="-1.65" angle="90.00" type="DEFAULT_VEHTYPE" speed="0.00" pos="45.00" lane="VODUGES_beg_0" slope="0.00"/>
    </timestep>
    <timestep time="9.40">
        <vehicle id="overtaking" x="79.89" y="-1.65" angle="90.00" type="DEFAULT_VEHTYPE" speed="13.88" pos="25.14" lane="VODUGES_end_0" slope="0.00"/>
        <vehicle id="stopped" x="45.00" y="-1.65" angle="90.00" type="DEFAULT_VEHTYPE" speed="0.00" pos="45.00" lane="VODUGES_beg_0" slope="0.00"/>
    </timestep>
    <timestep time="9.60">
        <vehicle id="overtaking" x="82.66" y="-1.65" angle="90.00" type="DEFAULT_VEHTYPE" speed="13.86" pos="27.91" lane="VODUGES_end_0" slope="0.00"/>
        <vehicle id="stopped" x="45.00" y="-1.65" angle="90.00" type="DEFAULT_VEHTYPE" speed="0.00" pos="45.00" lane="VODUGES_beg_0" slope="0.00"/>
    </timestep>
    <timestep time="9.80">
        <vehicle id="overtaking" x="85.41" y="-1.65" angle="90.00" type="DEFAULT_VEHTYPE" speed="13.73" pos="30.66" lane="VODUGES_end_0" slope="0.00"/>
        <vehicle id="stopped" x="45.00" y="-1.65" angle="90.00" type="DEFAULT_VEHTYPE" speed="0.00" pos="45.00" lane="VODUGES_beg_0" slope="0.00"/>
    </timestep>
    <timestep time="10.00">
        <vehicle id="overtaking" x="88.16" y="-1.65" angle="90.00" type="DEFAULT_VEHTYPE" speed="13.76" pos="33.41" lane="VODUGES_end_0" slope="0.00"/>
        <vehicle id="stopped" x="45.00" y="-1.65" angle="90.00" type="DEFAULT_VEHTYPE" speed="0.00" pos="45.00" lane="VODUGES_beg_0" slope="0.00"/>
    </timestep>
    <timestep time="10.20">
        <vehicle id="overtaking" x="90.90" y="-1.65" angle="90.00" type="DEFAULT_VEHTYPE" speed="13.71" pos="36.15" lane="VODUGES_end_0" slope="0.00"/>
        <vehicle id="stopped" x="45.00" y="-1.65" angle="90.00" type="DEFAULT_VEHTYPE" speed="0.00" pos="45.00" lane="VODUGES_beg_0" slope="0.00"/>
    </timestep>
    <timestep time="10.40">
        <vehicle id="overtaking" x="93.63" y="-1.65" angle="90.00" type="DEFAULT_VEHTYPE" speed="13.66" pos="38.88" lane="VODUGES_end_0" slope="0.00"/>
        <vehicle id="stopped" x="45.00" y="-1.65" angle="90.00" type="DEFAULT_VEHTYPE" speed="0.00" pos="45.00" lane="VODUGES_beg_0" slope="0.00"/>
    </timestep>
    <timestep time="10.60">
        <vehicle id="overtaking" x="96.36" y="-1.65" angle="90.00" type="DEFAULT_VEHTYPE" speed="13.64" pos="41.61" lane="VODUGES_end_0" slope="0.00"/>
        <vehicle id="stopped" x="45.00" y="-1.65" angle="90.00" type="DEFAULT_VEHTYPE" speed="0.00" pos="45.00" lane="VODUGES_beg_0" slope="0.00"/>
    </timestep>
    <timestep time="10.80">
        <vehicle id="overtaking" x="99.12" y="-1.65" angle="90.00" type="DEFAULT_VEHTYPE" speed="13.78" pos="44.37" lane="VODUGES_end_0" slope="0.00"/>
        <vehicle id="stopped" x="45.00" y="-1.65" angle="90.00" type="DEFAULT_VEHTYPE" speed="0.00" pos="45.00" lane="VODUGES_beg_0" slope="0.00"/>
    </timestep>
    <timestep time="11.00">
        <vehicle id="overtaking" x="101.86" y="-1.65" angle="90.00" type="DEFAULT_VEHTYPE" speed="13.71" pos="47.11" lane="VODUGES_end_0" slope="0.00"/>
        <vehicle id="stopped" x="45.00" y="-1.65" angle="90.00" type="DEFAULT_VEHTYPE" speed="0.00" pos="45.00" lane="VODUGES_beg_0" slope="0.00"/>
    </timestep>
    <timestep time="11.20">
        <vehicle id="overtaking" x="104.61" y="-1.65" angle="90.00" type="DEFAULT_VEHTYPE" speed="13.77" pos="49.86" lane="VODUGES_end_0" slope="0.00"/>
        <vehicle id="stopped" x="45.00" y="-1.65" angle="90.00" type="DEFAULT_VEHTYPE" speed="0.00" pos="45.00" lane="VODUGES_beg_0" slope="0.00"/>
    </timestep>
    <timestep time="11.40">
        <vehicle id="overtaking" x="107.35" y="-1.65" angle="90.00" type="DEFAULT_VEHTYPE" speed="13.69" pos="52.60" lane="VODUGES_end_0" slope="0.00"/>
        <vehicle id="stopped" x="45.00" y="-1.65" angle="90.00" type="DEFAULT_VEHTYPE" speed="0.00" pos="45.00" lane="VODUGES_beg_0" slope="0.00"/>
    </timestep>
    <timestep time="11.60">
        <vehicle id="overtaking" x="110.09" y="-1.65" angle="90.00" type="DEFAULT_VEHTYPE" speed="13.70" pos="55.34" lane="VODUGES_end_0" slope="0.00"/>
        <vehicle id="stopped" x="45.00" y="-1.65" angle="90.00" type="DEFAULT_VEHTYPE" speed="0.00" pos="45.00" lane="VODUGES_beg_0" slope="0.00"/>
    </timestep>
    <timestep time="11.80">
        <vehicle id="overtaking" x="112.83" y="-1.65" angle="90.00" type="DEFAULT_VEHTYPE" speed="13.70" pos="58.08" lane="VODUGES_end_0" slope="0.00"/>
        <vehicle id="stopped" x="45.00" y="-1.65" angle="90.00" type="DEFAULT_VEHTYPE" speed="0.00" pos="45.00" lane="VODUGES_beg_0" slope="0.00"/>
    </timestep>
    <timestep time="12.00">
        <vehicle id="overtaking" x="115.56" y="-1.65" angle="90.00" type="DEFAULT_VEHTYPE" speed="13.66" pos="60.81" lane="VODUGES_end_0" slope="0.00"/>
        <vehicle id="stopped" x="45.00" y="-1.65" angle="90.00" type="DEFAULT_VEHTYPE" speed="0.00" pos="45.00" lane="VODUGES_beg_0" slope="0.00"/>
    </timestep>
    <timestep time="12.20">
        <vehicle id="overtaking" x="118.32" y="-1.65" angle="90.00" type="DEFAULT_VEHTYPE" speed="13.77" pos="63.57" lane="VODUGES_end_0" slope="0.00"/>
        <vehicle id="stopped" x="45.00" y="-1.65" angle="90.00" type="DEFAULT_VEHTYPE" speed="0.00" pos="45.00" lane="VODUGES_beg_0" slope="0.00"/>
    </timestep>
    <timestep time="12.40">
        <vehicle id="overtaking" x="121.07" y="-1.65" angle="90.00" type="DEFAULT_VEHTYPE" speed="13.79" pos="66.32" lane="VODUGES_end_0" slope="0.00"/>
        <vehicle id="stopped" x="45.00" y="-1.65" angle="90.00" type="DEFAULT_VEHTYPE" speed="0.00" pos="45.00" lane="VODUGES_beg_0" slope="0.00"/>
    </timestep>
    <timestep time="12.60">
        <vehicle id="overtaking" x="123.80" y="-1.65" angle="90.00" type="DEFAULT_VEHTYPE" speed="13.64" pos="69.05" lane="VODUGES_end_0" slope="0.00"/>
        <vehicle id="stopped" x="45.00" y="-1.65" angle="90.00" type="DEFAULT_VEHTYPE" speed="0.00" pos="45.00" lane="VODUGES_beg_0" slope="0.00"/>
    </timestep>
    <timestep time="12.80">
        <vehicle id="overtaking" x="126.57" y="-1.65" angle="90.00" type="DEFAULT_VEHTYPE" speed="13.85" pos="71.82" lane="VODUGES_end_0" slope="0.00"/>
        <vehicle id="stopped" x="45.00" y="-1.65" angle="90.00" type="DEFAULT_VEHTYPE" speed="0.00" pos="45.00" lane="VODUGES_beg_0" slope="0.00"/>
    </timestep>
    <timestep time="13.00">
        <vehicle id="overtaking" x="129.33" y="-1.65" angle="90.00" type="DEFAULT_VEHTYPE" speed="13.80" pos="74.58" lane="VODUGES_end_0" slope="0.00"/>
        <vehicle id="stopped" x="45.00" y="-1.65" angle="90.00" type="DEFAULT_VEHTYPE" speed="0.00" pos="45.00" lane="VODUGES_beg_0" slope="0.00"/>
    </timestep>
    <timestep time="13.20">
        <vehicle id="overtaking" x="132.09" y="-1.65" angle="90.00" type="DEFAULT_VEHTYPE" speed="13.78" pos="77.34" lane="VODUGES_end_0" slope="0.00"/>
        <vehicle id="stopped" x="45.00" y="-1.65" angle="90.00" type="DEFAULT_VEHTYPE" speed="0.00" pos="45.00" lane="VODUGES_beg_0" slope="0.00"/>
    </timestep>
    <timestep time="13.40">
        <vehicle id="overtaking" x="134.85" y="-1.65" angle="90.00" type="DEFAULT_VEHTYPE" speed="13.82" pos="80.10" lane="VODUGES_end_0" slope="0.00"/>
        <vehicle id="stopped" x="45.00" y="-1.65" angle="90.00" type="DEFAULT_VEHTYPE" speed="0.00" pos="45.00" lane="VODUGES_beg_0" slope="0.00"/>
    </timestep>
    <timestep time="13.60">
        <vehicle id="overtaking" x="137.59" y="-1.65" angle="90.00" type="DEFAULT_VEHTYPE" speed="13.71" pos="82.84" lane="VODUGES_end_0" slope="0.00"/>
        <vehicle id="stopped" x="45.00" y="-1.65" angle="90.00" type="DEFAULT_VEHTYPE" speed="0.00" pos="45.00" lane="VODUGES_beg_0" slope="0.00"/>
    </timestep>
    <timestep time="13.80">
        <vehicle id="overtaking" x="140.34" y="-1.65" angle="90.00" type="DEFAULT_VEHTYPE" speed="13.74" pos="85.59" lane="VODUGES_end_0" slope="0.00"/>
        <vehicle id="stopped" x="45.00" y="-1.65" angle="90.00" type="DEFAULT_VEHTYPE" speed="0.00" pos="45.00" lane="VODUGES_beg_0" slope="0.00"/>
    </timestep>
    <timestep time="14.00">
        <vehicle id="overtaking" x="143.08" y="-1.65" angle="90.00" type="DEFAULT_VEHTYPE" speed="13.67" pos="88.33" lane="VODUGES_end_0" slope="0.00"/>
        <vehicle id="stopped" x="45.00" y="-1.65" angle="90.00" type="DEFAULT_VEHTYPE" speed="0.00" pos="45.00" lane="VODUGES_beg_0" slope="0.00"/>
    </timestep>
    <timestep time="14.20">
        <vehicle id="overtaking" x="145.81" y="-1.65" angle="90.00" type="DEFAULT_VEHTYPE" speed="13.68" pos="91.06" lane="VODUGES_end_0" slope="0.00"/>
        <vehicle id="stopped" x="45.00" y="-1.65" angle="90.00" type="DEFAULT_VEHTYPE" speed="0.00" pos="45.00" lane="VODUGES_beg_0" slope="0.00"/>
    </timestep>
    <timestep time="14.40">
        <vehicle id="overtaking" x="148.56" y="-1.65" angle="90.00" type="DEFAULT_VEHTYPE" speed="13.75" pos="93.81" lane="VODUGES_end_0" slope="0.00"/>
        <vehicle id="stopped" x="45.00" y="-1.65" angle="90.00" type="DEFAULT_VEHTYPE" speed="0.00" pos="45.00" lane="VODUGES_beg_0" slope="0.00"/>
    </timestep>
    <timestep time="14.60">
        <vehicle id="overtaking" x="151.29" y="-1.65" angle="90.00" type="DEFAULT_VEHTYPE" speed="13.63" pos="96.54" lane="VODUGES_end_0" slope="0.00"/>
        <vehicle id="stopped" x="45.00" y="-1.65" angle="90.00" type="DEFAULT_VEHTYPE" speed="0.00" pos="45.00" lane="VODUGES_beg_0" slope="0.00"/>
    </timestep>
    <timestep time="14.80">
        <vehicle id="overtaking" x="154.04" y="-1.65" angle="90.00" type="DEFAULT_VEHTYPE" speed="13.76" pos="99.29" lane="VODUGES_end_0" slope="0.00"/>
        <vehicle id="stopped" x="45.00" y="-1.65" angle="90.00" type="DEFAULT_VEHTYPE" speed="0.00" pos="45.00" lane="VODUGES_beg_0" slope="0.00"/>
    </timestep>
    <timestep time="15.00">
        <vehicle id="overtaking" x="156.81" y="-1.65" angle="90.00" type="DEFAULT_VEHTYPE" speed="13.85" pos="102.06" lane="VODUGES_end_0" slope="0.00"/>
        <vehicle id="stopped" x="45.00" y="-1.65" angle="90.00" type="DEFAULT_VEHTYPE" speed="0.00" pos="45.00" lane="VODUGES_beg_0" slope="0.00"/>
    </timestep>
    <timestep time="15.20">
        <vehicle id="overtaking" x="159.55" y="-1.65" angle="90.00" type="DEFAULT_VEHTYPE" speed="13.68" pos="104.80" lane="VODUGES_end_0" slope="0.00"/>
        <vehicle id="stopped" x="45.00" y="-1.65" angle="90.00" type="DEFAULT_VEHTYPE" speed="0.00" pos="45.00" lane="VODUGES_beg_0" slope="0.00"/>
    </timestep>
    <timestep time="15.40">
        <vehicle id="overtaking" x="162.31" y="-1.65" angle="90.00" type="DEFAULT_VEHTYPE" speed="13.80" pos="107.56" lane="VODUGES_end_0" slope="0.00"/>
        <vehicle id="stopped" x="45.00" y="-1.65" angle="90.00" type="DEFAULT_VEHTYPE" speed="0.00" pos="45.00" lane="VODUGES_beg_0" slope="0.00"/>
    </timestep>
    <timestep time="15.60">
        <vehicle id="overtaking" x="165.05" y="-1.65" angle="90.00" type="DEFAULT_VEHTYPE" speed="13.72" pos="110.30" lane="VODUGES_end_0" slope="0.00"/>
        <vehicle id="stopped" x="45.00" y="-1.65" angle="90.00" type="DEFAULT_VEHTYPE" speed="0.00" pos="45.00" lane="VODUGES_beg_0" slope="0.00"/>
    </timestep>
    <timestep time="15.80">
        <vehicle id="overtaking" x="167.83" y="-1.65" angle="90.00" type="DEFAULT_VEHTYPE" speed="13.89" pos="113.08" lane="VODUGES_end_0" slope="0.00"/>
        <vehicle id="stopped" x="45.00" y="-1.65" angle="90.00" type="DEFAULT_VEHTYPE" speed="0.00" pos="45.00" lane="VODUGES_beg_0" slope="0.00"/>
    </timestep>
    <timestep time="16.00">
        <vehicle id="overtaking" x="170.56" y="-1.65" angle="90.00" type="DEFAULT_VEHTYPE" speed="13.65" pos="115.81" lane="VODUGES_end_0" slope="0.00"/>
        <vehicle id="stopped" x="45.00" y="-1.65" angle="90.00" type="DEFAULT_VEHTYPE" speed="0.00" pos="45.00" lane="VODUGES_beg_0" slope="0.00"/>
    </timestep>
    <timestep time="16.20">
        <vehicle id="overtaking" x="173.33" y="-1.65" angle="90.00" type="DEFAULT_VEHTYPE" speed="13.86" pos="118.58" lane="VODUGES_end_0" slope="0.00"/>
        <vehicle id="stopped" x="45.00" y="-1.65" angle="90.00" type="DEFAULT_VEHTYPE" speed="0.00" pos="45.00" lane="VODUGES_beg_0" slope="0.00"/>
    </timestep>
    <timestep time="16.40">
        <vehicle id="overtaking" x="176.07" y="-1.65" angle="90.00" type="DEFAULT_VEHTYPE" speed="13.68" pos="121.32" lane="VODUGES_end_0" slope="0.00"/>
        <vehicle id="stopped" x="45.00" y="-1.65" angle="90.00" type="DEFAULT_VEHTYPE" speed="0.00" pos="45.00" lane="VODUGES_beg_0" slope="0.00"/>
    </timestep>
    <timestep time="16.60">
        <vehicle id="overtaking" x="178.79" y="-1.65" angle="90.00" type="DEFAULT_VEHTYPE" speed="13.63" pos="124.04" lane="VODUGES_end_0" slope="0.00"/>
        <vehicle id="stopped" x="45.00" y="-1.65" angle="90.00" type="DEFAULT_VEHTYPE" speed="0.00" pos="45.00" lane="VODUGES_beg_0" slope="0.00"/>
    </timestep>
    <timestep time="16.80">
        <vehicle id="overtaking" x="181.52" y="-1.65" angle="90.00" type="DEFAULT_VEHTYPE" speed="13.65" pos="126.77" lane="VODUGES_end_0" slope="0.00"/>
        <vehicle id="stopped" x="45.00" y="-1.65" angle="90.00" type="DEFAULT_VEHTYPE" speed="0.00" pos="45.00" lane="VODUGES_beg_0" slope="0.00"/>
    </timestep>