<?xml version="1.0" encoding="UTF-8"?>

<!-- generated on Thu Jan 26 09:25:48 2017 by SUMO Version dev-SVN-r22703
<?xml version="1.0" encoding="UTF-8"?>

<configuration xmlns:xsi="http://www.w3.org/2001/XMLSchema-instance" xsi:noNamespaceSchemaLocation="http://sumo.dlr.de/xsd/sumoConfiguration.xsd">

    <input>
        <net-file value="net2.net.xml"/>
        <route-files value="input_routes.rou.xml"/>
    </input>

    <output>
        <fcd-output value="fcd.xml"/>
        <tripinfo-output value="tripinfos.xml"/>
    </output>

    <time>
        <step-length value="0.2"/>
    </time>

    <report>
        <xml-validation value="never"/>
        <no-step-log value="true"/>
    </report>

</configuration>
-->

<tripinfos xmlns:xsi="http://www.w3.org/2001/XMLSchema-instance" xsi:noNamespaceSchemaLocation="http://sumo.dlr.de/xsd/tripinfo_file.xsd">
    <tripinfo id="overtaking" depart="0.00" departLane="VODUGES_beg_0" departPos="0.00" departSpeed="0.00" departDelay="0.00" arrival="17.80" arrivalLane="VODUGES_end_0" arrivalPos="140.50" arrivalSpeed="13.77" duration="17.80" routeLength="195.25" waitSteps="0" timeLoss="3.70" rerouteNo="0" devices="tripinfo_overtaking" vType="DEFAULT_VEHTYPE" speedFactor="1.00" vaporized=""/>
    <tripinfo id="stopped" depart="0.00" departLane="VODUGES_beg_0" departPos="40.00" departSpeed="0.00" departDelay="0.00" arrival="118.20" arrivalLane="VODUGES_end_0" arrivalPos="140.50" arrivalSpeed="13.70" duration="118.20" routeLength="155.25" waitSteps="0" timeLoss="6.74" rerouteNo="0" devices="tripinfo_stopped" vType="DEFAULT_VEHTYPE" speedFactor="1.00" vaporized=""/>
</tripinfos>
