<?xml version="1.0" encoding="UTF-8"?>

<!-- generated on 2026-04-15T10:45:05.155550+01:00 by Eclipse SUMO sumo v1_26_0+1166-f38e976d003
<sumoConfiguration xmlns:xsi="http://www.w3.org/2001/XMLSchema-instance" xsi:noNamespaceSchemaLocation="http://sumo.dlr.de/xsd/sumoConfiguration.xsd">

    <input>
        <net-file value="net.net.xml"/>
        <route-files value="input_routes.rou.xml,input_routes2.rou.xml"/>
    </input>

    <output>
        <tripinfo-output value="tripinfo.xml"/>
        <tripinfo-output.write-unfinished value="true"/>
        <vehroute-output value="vehroutes.xml"/>
        <vehroute-output.write-unfinished value="true"/>
        <save-state.times value="100"/>
        <save-state.files value="state.xml"/>
        <save-state.rng value="true"/>
        <save-state.transportables value="true"/>
    </output>

    <processing>
        <default.departspeed value="0"/>
        <default.departlane value="first"/>
    </processing>

    <report>
        <duration-log.statistics value="true"/>
        <no-step-log value="true"/>
    </report>

    <taxi_device>
        <device.taxi.dispatch-algorithm.output value="dispatchinfos.xml"/>
    </taxi_device>

    <mesoscopic>
        <mesosim value="true"/>
    </mesoscopic>

</sumoConfiguration>
-->

<snapshot type="meso" version="v1_26_0+1166-f38e976d003" time="100.00" xmlns:xsi="http://www.w3.org/2001/XMLSchema-instance" xsi:noNamespaceSchemaLocation="http://sumo.dlr.de/xsd/state_file.xsd">
    <rngState default="0" routeHandler="30" insertionControl="0" device="0" device.btreceiver="0" driverState="0" device.toc="0">
        <rngLane index="0" state="0"/>
        <rngLane index="1" state="0"/>
        <rngLane index="2" state="0"/>
        <rngLane index="3" state="0"/>
        <rngLane index="4" state="0"/>
        <rngLane index="5" state="0"/>
        <rngLane index="6" state="0"/>
        <rngLane index="7" state="0"/>
        <rngLane index="8" state="0"/>
        <rngLane index="9" state="0"/>
        <rngLane index="10" state="0"/>
        <rngLane index="11" state="0"/>
        <rngLane index="12" state="0"/>
        <rngLane index="13" state="0"/>
        <rngLane index="14" state="0"/>
        <rngLane index="15" state="0"/>
        <rngLane index="16" state="0"/>
        <rngLane index="17" state="0"/>
        <rngLane index="18" state="0"/>
        <rngLane index="19" state="0"/>
        <rngLane index="20" state="0"/>
        <rngLane index="21" state="0"/>
        <rngLane index="22" state="0"/>
        <rngLane index="23" state="0"/>
        <rngLane index="24" state="0"/>
        <rngLane index="25" state="0"/>
        <rngLane index="26" state="0"/>
        <rngLane index="27" state="0"/>
        <rngLane index="28" state="0"/>
        <rngLane index="29" state="0"/>
        <rngLane index="30" state="0"/>
        <rngLane index="31" state="0"/>
        <rngLane index="32" state="0"/>
        <rngLane index="33" state="0"/>
        <rngLane index="34" state="0"/>
        <rngLane index="35" state="0"/>
        <rngLane index="36" state="0"/>
        <rngLane index="37" state="0"/>
        <rngLane index="38" state="0"/>
        <rngLane index="39" state="0"/>
        <rngLane index="40" state="0"/>
        <rngLane index="41" state="0"/>
        <rngLane index="42" state="0"/>
        <rngLane index="43" state="0"/>
        <rngLane index="44" state="0"/>
        <rngLane index="45" state="0"/>
        <rngLane index="46" state="0"/>
        <rngLane index="47" state="0"/>
        <rngLane index="48" state="0"/>
        <rngLane index="49" state="0"/>
        <rngLane index="50" state="0"/>
        <rngLane index="51" state="0"/>
        <rngLane index="52" state="0"/>
        <rngLane index="53" state="0"/>
        <rngLane index="54" state="0"/>
        <rngLane index="55" state="0"/>
        <rngLane index="56" state="0"/>
        <rngLane index="57" state="0"/>
        <rngLane index="58" state="0"/>
        <rngLane index="59" state="0"/>
        <rngLane index="60" state="0"/>
        <rngLane index="61" state="0"/>
        <rngLane index="62" state="0"/>
        <rngLane index="63" state="0"/>
    </rngState>
    <dispatcher next="120000"/>
    <route id="!trip_0!var#1" state="0" edges="A0B0 B0C0 C0C1 C1C2 C2B2 B2B1 B1B0 B0C0"/>
    <route id="!trip_1!var#1" state="0" edges="A2B2 B2B1 B1C1 C1C2 C2D2"/>
    <delay number="2" begin="2" end="0" depart="0.00" time="0.00" speedFactor="1.03" decel="4.50"/>
    <vType id="DEFAULT_PEDTYPE" vClass="pedestrian"/>
    <vType id="taxi" vClass="taxi">
        <param key="has.taxi.device" value="true"/>
    </vType>
    <vehicle id="trip_0" type="taxi" depart="0.00" route="!trip_0!var#1" distance="2402.4 3" speedFactor="1.0300" reroute="1" line="taxi" state="262146 0 7 0 1 0 104100 97446 9223372036854774807 0 1">
        <stop lane="C1C2_1" permitted="p0" actType="pickup p0 (0)" started="48.48" ended="50.00"/>
        <stop lane="B0C0_1" startPos="285.60" endPos="285.60" actType="dropOff p0 (0)"/>
        <device id="vehroute_trip_0" state="14.31 0.00 3 !NULL 0 !trip_0 device.rerouting -1 0 A0B0 0 !trip_0!var#1 taxi:prepare_dispatch 0 0 A0B0 0 !trip_0!var#2 taxi:dispatch 0 0"/>
        <device id="tripinfo_trip_0" state="A0B0_1 14.3063 1284.64 0 0 0 1000 -1 -1000 NONE -1 0 -1"/>
        <device id="routing_trip_0" state="0 0"/>
        <device id="taxi_trip_0" state="2" customers="p0"/>
        <device id="person_trip_0" state="0"/>
        <rem id="person_trip_0" time="97446" pos="95.20"/>
        <rem id="vehroute_trip_0" time="97446" pos="95.20"/>
        <rem id="tripinfo_trip_0" time="97446" pos="95.20"/>
        <rem id="taxi_trip_0" time="97446" pos="95.20"/>
    </vehicle>
    <vehicle id="trip_1" type="taxi" depart="0.00" route="!trip_1!var#1" distance="1317.6 3" speedFactor="0.9692" reroute="1" line="taxi" state="262146 0 3 0 0 1 104462 98103 9223372036854774807 0 2">
        <stop lane="A2B2_1" triggered="person" started="14.24" ended="61.00"/>
        <stop lane="B2B1_1" permitted="p1" actType="pickup p1 (1)" started="68.03" ended="70.00"/>
        <stop lane="C2D2_1" startPos="285.60" endPos="285.60" actType="dropOff p1 (1)"/>
        <device id="vehroute_trip_1" state="13.46 0.00 3 !NULL 0 !trip_1 device.rerouting -1 0 A2B2 60000 !trip_1!var#1 taxi:prepare_dispatch 0 0 A2B2 60000 !trip_1!var#2 taxi:dispatch 0 0"/>
        <device id="tripinfo_trip_1" state="A2B2_1 13.4622 687.95 0 0 0 2000 -1 -1000 NONE -1 0 -1"/>
        <device id="routing_trip_1" state="0 0"/>
        <device id="taxi_trip_1" state="2" customers="p1"/>
        <device id="person_trip_1" state="0"/>
    </vehicle>
    <transportables type="person" state="10 10 0 0 0 0 0 8 0 0">
        <person id="p0" type="DEFAULT_PEDTYPE" depart="0.00" speedFactor="1.0104" state="0 1 0 0 -1 1 49000 trip_0 1317.6">
            <ride from="C1C2" to="B0C0" lines="taxi"/>
        </person>
        <person id="p1" type="DEFAULT_PEDTYPE" depart="10.00" speedFactor="1.0827" state="0 1 10000 0 -1 1 69000 trip_1 575.2">
            <ride from="B2B1" to="C2D2" lines="taxi"/>
        </person>
        <person id="p2" type="DEFAULT_PEDTYPE" depart="20.00" speedFactor="1.0303" state="0 1 20000 -1 -1 0">
            <ride from="C2C1" to="E1E2" lines="taxi"/>
        </person>
        <person id="p3" type="DEFAULT_PEDTYPE" depart="30.00" speedFactor="0.8310" state="0 1 30000 -1 -1 0">
            <ride from="B1A1" to="B2B1" lines="taxi"/>
        </person>
        <person id="p4" type="DEFAULT_PEDTYPE" depart="40.00" speedFactor="1.0458" state="0 1 40000 -1 -1 0">
            <ride from="A1A0" to="E2E1" lines="taxi"/>
        </person>
        <person id="p5" type="DEFAULT_PEDTYPE" depart="50.00" speedFactor="0.8860" state="0 1 50000 -1 -1 0">
            <ride from="D0D1" to="F1F0" lines="taxi"/>
        </person>
        <person id="p6" type="DEFAULT_PEDTYPE" depart="60.00" speedFactor="0.9379" state="0 1 60000 -1 -1 0">
            <ride from="D2E2" to="C2D2" lines="taxi"/>
        </person>
        <person id="p7" type="DEFAULT_PEDTYPE" depart="70.00" speedFactor="0.8569" state="0 1 70000 -1 -1 0">
            <ride from="D0D1" to="C0C1" lines="taxi"/>
        </person>
        <person id="p8" type="DEFAULT_PEDTYPE" depart="80.00" speedFactor="1.0907" state="0 1 80000 -1 -1 0">
            <ride from="B0B1" to="B2B1" lines="taxi"/>
        </person>
        <person id="p9" type="DEFAULT_PEDTYPE" depart="90.00" speedFactor="1.0263" state="0 1 90000 -1 -1 0">
            <ride from="C1B1" to="E0D0" lines="taxi"/>
        </person>
    </transportables>
    <segment id=":B0_1:0">
        <vehicles time="92859" blockTime="91866" value=""/>
    </segment>
    <segment id=":B0_6:0">
        <vehicles time="22779" blockTime="21771" value=""/>
    </segment>
    <segment id=":B1_1:0">
        <vehicles time="85486" blockTime="84478" value=""/>
    </segment>
    <segment id=":B1_2:0">
        <vehicles time="77900" blockTime="77459" value=""/>
    </segment>
    <segment id=":B2_1:0">
        <vehicles time="78894" blockTime="78479" value=""/>
    </segment>
    <segment id=":B2_6:0">
        <vehicles time="70316" blockTime="69644" value=""/>
    </segment>
    <segment id=":C0_7:0">
        <vehicles time="43553" blockTime="43138" value=""/>
    </segment>
    <segment id=":C1_9:0">
        <vehicles time="50145" blockTime="49137" value=""/>
    </segment>
    <segment id=":C1_14:0">
        <vehicles time="100170" blockTime="99115" value=""/>
    </segment>
    <segment id=":C2_4:0">
        <vehicles time="58518" blockTime="57525" value=""/>
    </segment>
    <segment id="A0B0:0">
        <vehicles time="8370" blockTime="-9223372036854775808" value=""/>
    </segment>
    <segment id="A0B0:1">
        <vehicles time="15071" blockTime="8369" value=""/>
    </segment>
    <segment id="A0B0:2">
        <vehicles time="-1" blockTime="-9223372036854775808" value=""/>
        <vehicles time="21772" blockTime="15070" value=""/>
    </segment>
    <segment id="A2B2:0">
        <vehicles time="8790" blockTime="-9223372036854775808" value=""/>
    </segment>
    <segment id="A2B2:1">
        <vehicles time="15911" blockTime="8789" value=""/>
    </segment>
    <segment id="A2B2:2">
        <vehicles time="-1" blockTime="-9223372036854775808" value=""/>
        <vehicles time="69032" blockTime="61910" value=""/>
    </segment>
    <segment id="B0C0:0">
        <vehicles time="99115" blockTime="92460" value=""/>
    </segment>
    <segment id="B0C0:1">
        <vehicles time="36087" blockTime="99114" value="trip_0"/>
    </segment>
    <segment id="B0C0:2">
        <vehicles time="-1" blockTime="-9223372036854775808" value=""/>
        <vehicles time="42741" blockTime="36086" value=""/>
    </segment>
    <segment id="B1B0:0">
        <vehicles time="-1" blockTime="-9223372036854775808" value=""/>
        <vehicles time="91469" blockTime="85485" value=""/>
    </segment>
    <segment id="B1C1:0">
        <vehicles time="84574" blockTime="77501" value=""/>
    </segment>
    <segment id="B1C1:1">
        <vehicles time="91646" blockTime="84573" value=""/>
    </segment>
    <segment id="B1C1:2">
        <vehicles time="-1" blockTime="-9223372036854775808" value=""/>
        <vehicles time="98718" blockTime="91645" value=""/>
    </segment>
    <segment id="B2B1:0">
        <vehicles time="-1" blockTime="-9223372036854775808" value=""/>
        <vehicles time="84479" blockTime="78495" value=""/>
    </segment>
    <segment id="C0C1:0">
        <vehicles time="-1" blockTime="-9223372036854775808" value=""/>
        <vehicles time="49138" blockTime="43154" value=""/>
    </segment>
    <segment id="C1C2:0">
        <vehicles time="-1" blockTime="-9223372036854775808" value=""/>
        <vehicles time="57128" blockTime="99771" value="trip_1"/>
    </segment>
    <segment id="C2B2:0">
        <vehicles time="64774" blockTime="58119" value=""/>
    </segment>
    <segment id="C2B2:1">
        <vehicles time="71428" blockTime="64773" value=""/>
    </segment>
    <segment id="C2B2:2">
        <vehicles time="-1" blockTime="-9223372036854775808" value=""/>
        <vehicles time="78082" blockTime="71427" value=""/>
    </segment>
    <routingEngine last="100000" index="100">
        <edge id=":B0_1" speed="4.39" pastSpeed="4.33 4.33 4.33 4.33 4.33 4.33 4.33 4.33 4.33 4.33 4.33 4.33 4.33 4.33 4.33 4.33 4.33 4.33 4.33 4.33 4.33 4.33 4.33 4.33 4.33 4.33 4.33 4.33 4.33 4.33 4.33 4.33 4.33 4.33 4.33 4.33 4.33 4.33 4.33 4.33 4.33 4.33 4.33 4.33 4.33 4.33 4.33 4.33 4.33 4.33 4.33 4.33 4.33 4.33 4.33 4.33 4.33 4.33 4.33 4.33 4.33 4.33 4.33 4.33 4.33 4.33 4.33 4.33 4.33 4.33 4.33 4.33 4.33 4.33 4.33 4.33 4.33 4.33 4.33 4.33 4.33 4.33 4.33 4.33 4.33 4.33 4.33 4.33 4.33 4.33 14.30 4.33 4.33 4.33 4.33 4.33 4.33 4.33 4.33 4.33 4.33 4.33 4.33 4.33 4.33 4.33 4.33 4.33 4.33 4.33 4.33 4.33 4.33 4.33 4.33 4.33 4.33 4.33 4.33 4.33 4.33 4.33 4.33 4.33 4.33 4.33 4.33 4.33 4.33 4.33 4.33 4.33 4.33 4.33 4.33 4.33 4.33 4.33 4.33 4.33 4.33 4.33 4.33 4.33 4.33 4.33 4.33 4.33 4.33 4.33 4.33 4.33 4.33 4.33 4.33 4.33 4.33 4.33 4.33 4.33 4.33 4.33 4.33 4.33 4.33 4.33 4.33 4.33 4.33 4.33 4.33 4.33 4.33 4.33 4.33 4.33 4.33 4.33 4.33 4.33"/>
        <edge id=":B0_6" speed="13.89" pastSpeed="13.89 13.89 13.89 13.89 13.89 13.89 13.89 13.89 13.89 13.89 13.89 13.89 13.89 13.89 13.89 13.89 13.89 13.89 13.89 13.89 13.89 14.30 13.89 13.89 13.89 13.89 13.89 13.89 13.89 13.89 13.89 13.89 13.89 13.89 13.89 13.89 13.89 13.89 13.89 13.89 13.89 13.89 13.89 13.89 13.89 13.89 13.89 13.89 13.89 13.89 13.89 13.89 13.89 13.89 13.89 13.89 13.89 13.89 13.89 13.89 13.89 13.89 13.89 13.89 13.89 13.89 13.89 13.89 13.89 13.89 13.89 13.89 13.89 13.89 13.89 13.89 13.89 13.89 13.89 13.89 13.89 13.89 13.89 13.89 13.89 13.89 13.89 13.89 13.89 13.89 13.89 13.89 13.89 13.89 13.89 13.89 13.89 13.89 13.89 13.89 13.89 13.89 13.89 13.89 13.89 13.89 13.89 13.89 13.89 13.89 13.89 13.89 13.89 13.89 13.89 13.89 13.89 13.89 13.89 13.89 13.89 13.89 13.89 13.89 13.89 13.89 13.89 13.89 13.89 13.89 13.89 13.89 13.89 13.89 13.89 13.89 13.89 13.89 13.89 13.89 13.89 13.89 13.89 13.89 13.89 13.89 13.89 13.89 13.89 13.89 13.89 13.89 13.89 13.89 13.89 13.89 13.89 13.89 13.89 13.89 13.89 13.89 13.89 13.89 13.89 13.89 13.89 13.89 13.89 13.89 13.89 13.89 13.89 13.89 13.89 13.89 13.89 13.89 13.89 13.89"/>
        <edge id=":B1_1" speed="13.89" pastSpeed="13.89 13.89 13.89 13.89 13.89 13.89 13.89 13.89 13.89 13.89 13.89 13.89 13.89 13.89 13.89 13.89 13.89 13.89 13.89 13.89 13.89 13.89 13.89 13.89 13.89 13.89 13.89 13.89 13.89 13.89 13.89 13.89 13.89 13.89 13.89 13.89 13.89 13.89 13.89 13.89 13.89 13.89 13.89 13.89 13.89 13.89 13.89 13.89 13.89 13.89 13.89 13.89 13.89 13.89 13.89 13.89 13.89 13.89 13.89 13.89 13.89 13.89 13.89 13.89 13.89 13.89 13.89 13.89 13.89 13.89 13.89 13.89 13.89 13.89 13.89 13.89 13.89 13.89 13.89 13.89 13.89 13.89 13.89 14.30 13.89 13.89 13.89 13.89 13.89 13.89 13.89 13.89 13.89 13.89 13.89 13.89 13.89 13.89 13.89 13.89 13.89 13.89 13.89 13.89 13.89 13.89 13.89 13.89 13.89 13.89 13.89 13.89 13.89 13.89 13.89 13.89 13.89 13.89 13.89 13.89 13.89 13.89 13.89 13.89 13.89 13.89 13.89 13.89 13.89 13.89 13.89 13.89 13.89 13.89 13.89 13.89 13.89 13.89 13.89 13.89 13.89 13.89 13.89 13.89 13.89 13.89 13.89 13.89 13.89 13.89 13.89 13.89 13.89 13.89 13.89 13.89 13.89 13.89 13.89 13.89 13.89 13.89 13.89 13.89 13.89 13.89 13.89 13.89 13.89 13.89 13.89 13.89 13.89 13.89 13.89 13.89 13.89 13.89 13.89 13.89"/>
        <edge id=":B1_2" speed="2.65" pastSpeed="2.65 2.65 2.65 2.65 2.65 2.65 2.65 2.65 2.65 2.65 2.65 2.65 2.65 2.65 2.65 2.65 2.65 2.65 2.65 2.65 2.65 2.65 2.65 2.65 2.65 2.65 2.65 2.65 2.65 2.65 2.65 2.65 2.65 2.65 2.65 2.65 2.65 2.65 2.65 2.65 2.65 2.65 2.65 2.65 2.65 2.65 2.65 2.65 2.65 2.65 2.65 2.65 2.65 2.65 2.65 2.65 2.65 2.65 2.65 2.65 2.65 2.65 2.65 2.65 2.65 2.65 2.65 2.65 2.65 2.65 2.65 2.65 2.65 2.65 2.65 2.65 2.65 2.65 2.65 2.65 2.65 2.65 2.65 2.65 2.65 2.65 2.65 2.65 2.65 2.65 2.65 2.65 2.65 2.65 2.65 2.65 2.65 2.65 2.65 2.65 2.65 2.65 2.65 2.65 2.65 2.65 2.65 2.65 2.65 2.65 2.65 2.65 2.65 2.65 2.65 2.65 2.65 2.65 2.65 2.65 2.65 2.65 2.65 2.65 2.65 2.65 2.65 2.65 2.65 2.65 2.65 2.65 2.65 2.65 2.65 2.65 2.65 2.65 2.65 2.65 2.65 2.65 2.65 2.65 2.65 2.65 2.65 2.65 2.65 2.65 2.65 2.65 2.65 2.65 2.65 2.65 2.65 2.65 2.65 2.65 2.65 2.65 2.65 2.65 2.65 2.65 2.65 2.65 2.65 2.65 2.65 2.65 2.65 2.65 2.65 2.65 2.65 2.65 2.65 2.65"/>
        <edge id=":B2_1" speed="2.65" pastSpeed="2.65 2.65 2.65 2.65 2.65 2.65 2.65 2.65 2.65 2.65 2.65 2.65 2.65 2.65 2.65 2.65 2.65 2.65 2.65 2.65 2.65 2.65 2.65 2.65 2.65 2.65 2.65 2.65 2.65 2.65 2.65 2.65 2.65 2.65 2.65 2.65 2.65 2.65 2.65 2.65 2.65 2.65 2.65 2.65 2.65 2.65 2.65 2.65 2.65 2.65 2.65 2.65 2.65 2.65 2.65 2.65 2.65 2.65 2.65 2.65 2.65 2.65 2.65 2.65 2.65 2.65 2.65 2.65 2.65 2.65 2.65 2.65 2.65 2.65 2.65 2.65 2.65 2.65 2.65 2.65 2.65 2.65 2.65 2.65 2.65 2.65 2.65 2.65 2.65 2.65 2.65 2.65 2.65 2.65 2.65 2.65 2.65 2.65 2.65 2.65 2.65 2.65 2.65 2.65 2.65 2.65 2.65 2.65 2.65 2.65 2.65 2.65 2.65 2.65 2.65 2.65 2.65 2.65 2.65 2.65 2.65 2.65 2.65 2.65 2.65 2.65 2.65 2.65 2.65 2.65 2.65 2.65 2.65 2.65 2.65 2.65 2.65 2.65 2.65 2.65 2.65 2.65 2.65 2.65 2.65 2.65 2.65 2.65 2.65 2.65 2.65 2.65 2.65 2.65 2.65 2.65 2.65 2.65 2.65 2.65 2.65 2.65 2.65 2.65 2.65 2.65 2.65 2.65 2.65 2.65 2.65 2.65 2.65 2.65 2.65 2.65 2.65 2.65 2.65 2.65"/>
        <edge id=":B2_6" speed="6.55" pastSpeed="6.51 6.51 6.51 6.51 6.51 6.51 6.51 6.51 6.51 6.51 6.51 6.51 6.51 6.51 6.51 6.51 6.51 6.51 6.51 6.51 6.51 6.51 6.51 6.51 6.51 6.51 6.51 6.51 6.51 6.51 6.51 6.51 6.51 6.51 6.51 6.51 6.51 6.51 6.51 6.51 6.51 6.51 6.51 6.51 6.51 6.51 6.51 6.51 6.51 6.51 6.51 6.51 6.51 6.51 6.51 6.51 6.51 6.51 6.51 6.51 6.51 6.51 6.51 6.51 6.51 6.51 6.51 6.51 13.46 6.51 6.51 6.51 6.51 6.51 6.51 6.51 6.51 6.51 6.51 6.51 6.51 6.51 6.51 6.51 6.51 6.51 6.51 6.51 6.51 6.51 6.51 6.51 6.51 6.51 6.51 6.51 6.51 6.51 6.51 6.51 6.51 6.51 6.51 6.51 6.51 6.51 6.51 6.51 6.51 6.51 6.51 6.51 6.51 6.51 6.51 6.51 6.51 6.51 6.51 6.51 6.51 6.51 6.51 6.51 6.51 6.51 6.51 6.51 6.51 6.51 6.51 6.51 6.51 6.51 6.51 6.51 6.51 6.51 6.51 6.51 6.51 6.51 6.51 6.51 6.51 6.51 6.51 6.51 6.51 6.51 6.51 6.51 6.51 6.51 6.51 6.51 6.51 6.51 6.51 6.51 6.51 6.51 6.51 6.51 6.51 6.51 6.51 6.51 6.51 6.51 6.51 6.51 6.51 6.51 6.51 6.51 6.51 6.51 6.51 6.51"/>
        <edge id=":C0_7" speed="2.65" pastSpeed="2.65 2.65 2.65 2.65 2.65 2.65 2.65 2.65 2.65 2.65 2.65 2.65 2.65 2.65 2.65 2.65 2.65 2.65 2.65 2.65 2.65 2.65 2.65 2.65 2.65 2.65 2.65 2.65 2.65 2.65 2.65 2.65 2.65 2.65 2.65 2.65 2.65 2.65 2.65 2.65 2.65 2.65 2.65 2.65 2.65 2.65 2.65 2.65 2.65 2.65 2.65 2.65 2.65 2.65 2.65 2.65 2.65 2.65 2.65 2.65 2.65 2.65 2.65 2.65 2.65 2.65 2.65 2.65 2.65 2.65 2.65 2.65 2.65 2.65 2.65 2.65 2.65 2.65 2.65 2.65 2.65 2.65 2.65 2.65 2.65 2.65 2.65 2.65 2.65 2.65 2.65 2.65 2.65 2.65 2.65 2.65 2.65 2.65 2.65 2.65 2.65 2.65 2.65 2.65 2.65 2.65 2.65 2.65 2.65 2.65 2.65 2.65 2.65 2.65 2.65 2.65 2.65 2.65 2.65 2.65 2.65 2.65 2.65 2.65 2.65 2.65 2.65 2.65 2.65 2.65 2.65 2.65 2.65 2.65 2.65 2.65 2.65 2.65 2.65 2.65 2.65 2.65 2.65 2.65 2.65 2.65 2.65 2.65 2.65 2.65 2.65 2.65 2.65 2.65 2.65 2.65 2.65 2.65 2.65 2.65 2.65 2.65 2.65 2.65 2.65 2.65 2.65 2.65 2.65 2.65 2.65 2.65 2.65 2.65 2.65 2.65 2.65 2.65 2.65 2.65"/>
        <edge id=":C1_9" speed="13.89" pastSpeed="13.89 13.89 13.89 13.89 13.89 13.89 13.89 13.89 13.89 13.89 13.89 13.89 13.89 13.89 13.89 13.89 13.89 13.89 13.89 13.89 13.89 13.89 13.89 13.89 13.89 13.89 13.89 13.89 13.89 13.89 13.89 13.89 13.89 13.89 13.89 13.89 13.89 13.89 13.89 13.89 13.89 13.89 13.89 13.89 13.89 13.89 13.89 13.89 14.30 13.89 13.89 13.89 13.89 13.89 13.89 13.89 13.89 13.89 13.89 13.89 13.89 13.89 13.89 13.89 13.89 13.89 13.89 13.89 13.89 13.89 13.89 13.89 13.89 13.89 13.89 13.89 13.89 13.89 13.89 13.89 13.89 13.89 13.89 13.89 13.89 13.89 13.89 13.89 13.89 13.89 13.89 13.89 13.89 13.89 13.89 13.89 13.89 13.89 13.89 13.89 13.89 13.89 13.89 13.89 13.89 13.89 13.89 13.89 13.89 13.89 13.89 13.89 13.89 13.89 13.89 13.89 13.89 13.89 13.89 13.89 13.89 13.89 13.89 13.89 13.89 13.89 13.89 13.89 13.89 13.89 13.89 13.89 13.89 13.89 13.89 13.89 13.89 13.89 13.89 13.89 13.89 13.89 13.89 13.89 13.89 13.89 13.89 13.89 13.89 13.89 13.89 13.89 13.89 13.89 13.89 13.89 13.89 13.89 13.89 13.89 13.89 13.89 13.89 13.89 13.89 13.89 13.89 13.89 13.89 13.89 13.89 13.89 13.89 13.89 13.89 13.89 13.89 13.89 13.89 13.89"/>
        <edge id=":C1_14" speed="4.39" pastSpeed="4.33 4.33 4.33 4.33 4.33 4.33 4.33 4.33 4.33 4.33 4.33 4.33 4.33 4.33 4.33 4.33 4.33 4.33 4.33 4.33 4.33 4.33 4.33 4.33 4.33 4.33 4.33 4.33 4.33 4.33 4.33 4.33 4.33 4.33 4.33 4.33 4.33 4.33 4.33 4.33 4.33 4.33 4.33 4.33 4.33 4.33 4.33 4.33 4.33 4.33 4.33 4.33 4.33 4.33 4.33 4.33 4.33 4.33 4.33 4.33 4.33 4.33 4.33 4.33 4.33 4.33 4.33 4.33 4.33 4.33 4.33 4.33 4.33 4.33 4.33 4.33 4.33 4.33 4.33 4.33 4.33 4.33 4.33 4.33 4.33 4.33 4.33 4.33 4.33 4.33 4.33 4.33 4.33 4.33 4.33 4.33 4.33 4.33 13.46 4.33 4.33 4.33 4.33 4.33 4.33 4.33 4.33 4.33 4.33 4.33 4.33 4.33 4.33 4.33 4.33 4.33 4.33 4.33 4.33 4.33 4.33 4.33 4.33 4.33 4.33 4.33 4.33 4.33 4.33 4.33 4.33 4.33 4.33 4.33 4.33 4.33 4.33 4.33 4.33 4.33 4.33 4.33 4.33 4.33 4.33 4.33 4.33 4.33 4.33 4.33 4.33 4.33 4.33 4.33 4.33 4.33 4.33 4.33 4.33 4.33 4.33 4.33 4.33 4.33 4.33 4.33 4.33 4.33 4.33 4.33 4.33 4.33 4.33 4.33 4.33 4.33 4.33 4.33 4.33 4.33"/>
        <edge id=":C2_4" speed="4.39" pastSpeed="4.33 4.33 4.33 4.33 4.33 4.33 4.33 4.33 4.33 4.33 4.33 4.33 4.33 4.33 4.33 4.33 4.33 4.33 4.33 4.33 4.33 4.33 4.33 4.33 4.33 4.33 4.33 4.33 4.33 4.33 4.33 4.33 4.33 4.33 4.33 4.33 4.33 4.33 4.33 4.33 4.33 4.33 4.33 4.33 4.33 4.33 4.33 4.33 4.33 4.33 4.33 4.33 4.33 4.33 4.33 4.33 14.30 4.33 4.33 4.33 4.33 4.33 4.33 4.33 4.33 4.33 4.33 4.33 4.33 4.33 4.33 4.33 4.33 4.33 4.33 4.33 4.33 4.33 4.33 4.33 4.33 4.33 4.33 4.33 4.33 4.33 4.33 4.33 4.33 4.33 4.33 4.33 4.33 4.33 4.33 4.33 4.33 4.33 4.33 4.33 4.33 4.33 4.33 4.33 4.33 4.33 4.33 4.33 4.33 4.33 4.33 4.33 4.33 4.33 4.33 4.33 4.33 4.33 4.33 4.33 4.33 4.33 4.33 4.33 4.33 4.33 4.33 4.33 4.33 4.33 4.33 4.33 4.33 4.33 4.33 4.33 4.33 4.33 4.33 4.33 4.33 4.33 4.33 4.33 4.33 4.33 4.33 4.33 4.33 4.33 4.33 4.33 4.33 4.33 4.33 4.33 4.33 4.33 4.33 4.33 4.33 4.33 4.33 4.33 4.33 4.33 4.33 4.33 4.33 4.33 4.33 4.33 4.33 4.33 4.33 4.33 4.33 4.33 4.33 4.33"/>
        <edge id="A0B0" speed="13.94" pastSpeed="14.31 14.31 14.31 14.31 14.31 14.31 14.31 14.31 14.31 14.31 14.31 14.31 14.31 14.31 14.31 14.31 14.31 14.31 14.31 14.31 14.31 13.89 13.89 13.89 13.89 13.89 13.89 13.89 13.89 13.89 13.89 13.89 13.89 13.89 13.89 13.89 13.89 13.89 13.89 13.89 13.89 13.89 13.89 13.89 13.89 13.89 13.89 13.89 13.89 13.89 13.89 13.89 13.89 13.89 13.89 13.89 13.89 13.89 13.89 13.89 13.89 13.89 13.89 13.89 13.89 13.89 13.89 13.89 13.89 13.89 13.89 13.89 13.89 13.89 13.89 13.89 13.89 13.89 13.89 13.89 13.89 13.89 13.89 13.89 13.89 13.89 13.89 13.89 13.89 13.89 13.89 13.89 13.89 13.89 13.89 13.89 13.89 13.89 13.89 13.89 13.89 13.89 13.89 13.89 13.89 13.89 13.89 13.89 13.89 13.89 13.89 13.89 13.89 13.89 13.89 13.89 13.89 13.89 13.89 13.89 13.89 13.89 13.89 13.89 13.89 13.89 13.89 13.89 13.89 13.89 13.89 13.89 13.89 13.89 13.89 13.89 13.89 13.89 13.89 13.89 13.89 13.89 13.89 13.89 13.89 13.89 13.89 13.89 13.89 13.89 13.89 13.89 13.89 13.89 13.89 13.89 13.89 13.89 13.89 13.89 13.89 13.89 13.89 13.89 13.89 13.89 13.89 13.89 13.89 13.89 13.89 13.89 13.89 13.89 13.89 13.89 13.89 13.89 13.89 13.89"/>
        <edge id="A2B2" speed="13.84" pastSpeed="13.46 13.46 13.46 13.46 13.46 13.46 13.46 13.46 13.46 13.46 13.46 13.46 13.46 13.46 13.46 13.89 13.89 13.89 13.89 13.89 13.89 13.89 13.89 13.89 13.89 13.89 13.89 13.89 13.89 13.89 13.89 13.89 13.89 13.89 13.89 13.89 13.89 13.89 13.89 13.89 13.89 13.89 13.89 13.89 13.89 13.89 13.89 13.89 13.89 13.89 13.89 13.89 13.89 13.89 13.89 13.89 13.89 13.89 13.89 13.89 13.89 13.46 13.46 13.46 13.46 13.46 13.46 13.46 13.89 13.89 13.89 13.89 13.89 13.89 13.89 13.89 13.89 13.89 13.89 13.89 13.89 13.89 13.89 13.89 13.89 13.89 13.89 13.89 13.89 13.89 13.89 13.89 13.89 13.89 13.89 13.89 13.89 13.89 13.89 13.89 13.89 13.89 13.89 13.89 13.89 13.89 13.89 13.89 13.89 13.89 13.89 13.89 13.89 13.89 13.89 13.89 13.89 13.89 13.89 13.89 13.89 13.89 13.89 13.89 13.89 13.89 13.89 13.89 13.89 13.89 13.89 13.89 13.89 13.89 13.89 13.89 13.89 13.89 13.89 13.89 13.89 13.89 13.89 13.89 13.89 13.89 13.89 13.89 13.89 13.89 13.89 13.89 13.89 13.89 13.89 13.89 13.89 13.89 13.89 13.89 13.89 13.89 13.89 13.89 13.89 13.89 13.89 13.89 13.89 13.89 13.89 13.89 13.89 13.89 13.89 13.89 13.89 13.89 13.89 13.89"/>
        <edge id="B0C0" speed="13.96" pastSpeed="13.89 13.89 13.89 13.89 13.89 13.89 13.89 13.89 13.89 13.89 13.89 13.89 13.89 13.89 13.89 13.89 13.89 13.89 13.89 13.89 13.89 13.89 14.31 14.31 14.31 14.31 14.31 14.31 14.31 14.31 14.31 14.31 14.31 14.31 14.31 14.31 14.31 14.31 14.31 14.31 14.31 14.31 13.89 13.89 13.89 13.89 13.89 13.89 13.89 13.89 13.89 13.89 13.89 13.89 13.89 13.89 13.89 13.89 13.89 13.89 13.89 13.89 13.89 13.89 13.89 13.89 13.89 13.89 13.89 13.89 13.89 13.89 13.89 13.89 13.89 13.89 13.89 13.89 13.89 13.89 13.89 13.89 13.89 13.89 13.89 13.89 13.89 13.89 13.89 13.89 13.89 14.31 14.31 14.31 14.31 14.31 14.31 14.31 14.31 14.31 13.89 13.89 13.89 13.89 13.89 13.89 13.89 13.89 13.89 13.89 13.89 13.89 13.89 13.89 13.89 13.89 13.89 13.89 13.89 13.89 13.89 13.89 13.89 13.89 13.89 13.89 13.89 13.89 13.89 13.89 13.89 13.89 13.89 13.89 13.89 13.89 13.89 13.89 13.89 13.89 13.89 13.89 13.89 13.89 13.89 13.89 13.89 13.89 13.89 13.89 13.89 13.89 13.89 13.89 13.89 13.89 13.89 13.89 13.89 13.89 13.89 13.89 13.89 13.89 13.89 13.89 13.89 13.89 13.89 13.89 13.89 13.89 13.89 13.89 13.89 13.89 13.89 13.89 13.89 13.89"/>
        <edge id="B1B0" speed="13.90" pastSpeed="13.89 13.89 13.89 13.89 13.89 13.89 13.89 13.89 13.89 13.89 13.89 13.89 13.89 13.89 13.89 13.89 13.89 13.89 13.89 13.89 13.89 13.89 13.89 13.89 13.89 13.89 13.89 13.89 13.89 13.89 13.89 13.89 13.89 13.89 13.89 13.89 13.89 13.89 13.89 13.89 13.89 13.89 13.89 13.89 13.89 13.89 13.89 13.89 13.89 13.89 13.89 13.89 13.89 13.89 13.89 13.89 13.89 13.89 13.89 13.89 13.89 13.89 13.89 13.89 13.89 13.89 13.89 13.89 13.89 13.89 13.89 13.89 13.89 13.89 13.89 13.89 13.89 13.89 13.89 13.89 13.89 13.89 13.89 13.89 14.31 14.31 14.31 14.31 14.31 14.31 13.89 13.89 13.89 13.89 13.89 13.89 13.89 13.89 13.89 13.89 13.89 13.89 13.89 13.89 13.89 13.89 13.89 13.89 13.89 13.89 13.89 13.89 13.89 13.89 13.89 13.89 13.89 13.89 13.89 13.89 13.89 13.89 13.89 13.89 13.89 13.89 13.89 13.89 13.89 13.89 13.89 13.89 13.89 13.89 13.89 13.89 13.89 13.89 13.89 13.89 13.89 13.89 13.89 13.89 13.89 13.89 13.89 13.89 13.89 13.89 13.89 13.89 13.89 13.89 13.89 13.89 13.89 13.89 13.89 13.89 13.89 13.89 13.89 13.89 13.89 13.89 13.89 13.89 13.89 13.89 13.89 13.89 13.89 13.89 13.89 13.89 13.89 13.89 13.89 13.89"/>
        <edge id="B1C1" speed="13.84" pastSpeed="13.89 13.89 13.89 13.89 13.89 13.89 13.89 13.89 13.89 13.89 13.89 13.89 13.89 13.89 13.89 13.89 13.89 13.89 13.89 13.89 13.89 13.89 13.89 13.89 13.89 13.89 13.89 13.89 13.89 13.89 13.89 13.89 13.89 13.89 13.89 13.89 13.89 13.89 13.89 13.89 13.89 13.89 13.89 13.89 13.89 13.89 13.89 13.89 13.89 13.89 13.89 13.89 13.89 13.89 13.89 13.89 13.89 13.89 13.89 13.89 13.89 13.89 13.89 13.89 13.89 13.89 13.89 13.89 13.89 13.89 13.89 13.89 13.89 13.89 13.89 13.89 13.46 13.46 13.46 13.46 13.46 13.46 13.46 13.46 13.46 13.46 13.46 13.46 13.46 13.46 13.46 13.46 13.46 13.46 13.46 13.46 13.46 13.46 13.89 13.89 13.89 13.89 13.89 13.89 13.89 13.89 13.89 13.89 13.89 13.89 13.89 13.89 13.89 13.89 13.89 13.89 13.89 13.89 13.89 13.89 13.89 13.89 13.89 13.89 13.89 13.89 13.89 13.89 13.89 13.89 13.89 13.89 13.89 13.89 13.89 13.89 13.89 13.89 13.89 13.89 13.89 13.89 13.89 13.89 13.89 13.89 13.89 13.89 13.89 13.89 13.89 13.89 13.89 13.89 13.89 13.89 13.89 13.89 13.89 13.89 13.89 13.89 13.89 13.89 13.89 13.89 13.89 13.89 13.89 13.89 13.89 13.89 13.89 13.89 13.89 13.89 13.89 13.89 13.89 13.89"/>
        <edge id="B2B1" speed="13.89" pastSpeed="13.89 13.89 13.89 13.89 13.89 13.89 13.89 13.89 13.89 13.89 13.89 13.89 13.89 13.89 13.89 13.89 13.89 13.89 13.89 13.89 13.89 13.89 13.89 13.89 13.89 13.89 13.89 13.89 13.89 13.89 13.89 13.89 13.89 13.89 13.89 13.89 13.89 13.89 13.89 13.89 13.89 13.89 13.89 13.89 13.89 13.89 13.89 13.89 13.89 13.89 13.89 13.89 13.89 13.89 13.89 13.89 13.89 13.89 13.89 13.89 13.89 13.89 13.89 13.89 13.89 13.89 13.89 13.89 13.89 13.89 13.46 13.46 13.46 13.46 13.46 13.46 13.89 14.31 14.31 14.31 14.31 14.31 14.31 13.89 13.89 13.89 13.89 13.89 13.89 13.89 13.89 13.89 13.89 13.89 13.89 13.89 13.89 13.89 13.89 13.89 13.89 13.89 13.89 13.89 13.89 13.89 13.89 13.89 13.89 13.89 13.89 13.89 13.89 13.89 13.89 13.89 13.89 13.89 13.89 13.89 13.89 13.89 13.89 13.89 13.89 13.89 13.89 13.89 13.89 13.89 13.89 13.89 13.89 13.89 13.89 13.89 13.89 13.89 13.89 13.89 13.89 13.89 13.89 13.89 13.89 13.89 13.89 13.89 13.89 13.89 13.89 13.89 13.89 13.89 13.89 13.89 13.89 13.89 13.89 13.89 13.89 13.89 13.89 13.89 13.89 13.89 13.89 13.89 13.89 13.89 13.89 13.89 13.89 13.89 13.89 13.89 13.89 13.89 13.89 13.89"/>