<?xml version="1.0" encoding="UTF-8"?>

<!-- generated on 2026-04-20T16:55:00.200039+01:00 by Eclipse SUMO sumo v1_26_0+1286-d51e20aa037
<sumoConfiguration xmlns:xsi="http://www.w3.org/2001/XMLSchema-instance" xsi:noNamespaceSchemaLocation="http://sumo.dlr.de/xsd/sumoConfiguration.xsd">

    <input>
        <net-file value="net.net.xml"/>
        <route-files value="input_routes.rou.xml,input_routes2.rou.xml"/>
    </input>

    <output>
        <tripinfo-output value="tripinfo.xml"/>
        <tripinfo-output.write-unfinished value="true"/>
        <vehroute-output value="vehroutes.xml"/>
        <vehroute-output.write-unfinished value="true"/>
        <save-state.times value="100"/>
        <save-state.files value="state.xml"/>
        <save-state.rng value="true"/>
        <save-state.transportables value="true"/>
        <save-state.precision value="6"/>
    </output>

    <processing>
        <default.departspeed value="0"/>
        <default.departlane value="first"/>
    </processing>

    <report>
        <duration-log.statistics value="true"/>
        <no-step-log value="true"/>
    </report>

    <taxi_device>
        <device.taxi.dispatch-algorithm.output value="dispatchinfos.xml"/>
    </taxi_device>

</sumoConfiguration>
-->

<snapshot type="micro" version="v1_26_0+1286-d51e20aa037" time="100.000" xmlns:xsi="http://www.w3.org/2001/XMLSchema-instance" xsi:noNamespaceSchemaLocation="http://sumo.dlr.de/xsd/state_file.xsd">
    <rngState default="0" routeHandler="30" insertionControl="0" device="0" device.btreceiver="0" driverState="0" device.toc="0">
        <rngLane index="0" state="0"/>
        <rngLane index="1" state="1"/>
        <rngLane index="2" state="0"/>
        <rngLane index="3" state="0"/>
        <rngLane index="4" state="0"/>
        <rngLane index="5" state="0"/>
        <rngLane index="6" state="2"/>
        <rngLane index="7" state="0"/>
        <rngLane index="8" state="0"/>
        <rngLane index="9" state="24"/>
        <rngLane index="10" state="0"/>
        <rngLane index="11" state="0"/>
        <rngLane index="12" state="0"/>
        <rngLane index="13" state="0"/>
        <rngLane index="14" state="0"/>
        <rngLane index="15" state="0"/>
        <rngLane index="16" state="0"/>
        <rngLane index="17" state="0"/>
        <rngLane index="18" state="0"/>
        <rngLane index="19" state="32"/>
        <rngLane index="20" state="0"/>
        <rngLane index="21" state="1"/>
        <rngLane index="22" state="0"/>
        <rngLane index="23" state="1"/>
        <rngLane index="24" state="0"/>
        <rngLane index="25" state="22"/>
        <rngLane index="26" state="0"/>
        <rngLane index="27" state="0"/>
        <rngLane index="28" state="0"/>
        <rngLane index="29" state="0"/>
        <rngLane index="30" state="1"/>
        <rngLane index="31" state="0"/>
        <rngLane index="32" state="0"/>
        <rngLane index="33" state="18"/>
        <rngLane index="34" state="0"/>
        <rngLane index="35" state="0"/>
        <rngLane index="36" state="0"/>
        <rngLane index="37" state="18"/>
        <rngLane index="38" state="0"/>
        <rngLane index="39" state="2"/>
        <rngLane index="40" state="1"/>
        <rngLane index="41" state="0"/>
        <rngLane index="42" state="1"/>
        <rngLane index="43" state="6"/>
        <rngLane index="44" state="0"/>
        <rngLane index="45" state="0"/>
        <rngLane index="46" state="0"/>
        <rngLane index="47" state="0"/>
        <rngLane index="48" state="0"/>
        <rngLane index="49" state="0"/>
        <rngLane index="50" state="0"/>
        <rngLane index="51" state="12"/>
        <rngLane index="52" state="0"/>
        <rngLane index="53" state="0"/>
        <rngLane index="54" state="0"/>
        <rngLane index="55" state="22"/>
        <rngLane index="56" state="0"/>
        <rngLane index="57" state="0"/>
        <rngLane index="58" state="2"/>
        <rngLane index="59" state="0"/>
        <rngLane index="60" state="0"/>
        <rngLane index="61" state="0"/>
        <rngLane index="62" state="0"/>
        <rngLane index="63" state="1"/>
    </rngState>
    <edgeControl lanes="B2B1_1 B1C1_1"/>
    <dispatcher next="120000" count="10" customers="p0 0 p1 1 p2 2 p3 3 p4 4 p5 5 p6 6 p7 7 p8 8 p9 9 "/>
    <route id="!trip_0!var#1" state="0" edges="A0B0 B0C0 C0C1 C1C2 C2B2 B2B1 B1B0 B0C0"/>
    <route id="!trip_1!var#1" state="0" edges="A2B2 B2B1 B1C1 C1C2 C2D2"/>
    <delay number="2" begin="2" end="0" depart="0.000000" time="0.000000" speedFactor="1.030000" decel="4.500000"/>
    <vType id="DEFAULT_PEDTYPE" vClass="pedestrian"/>
    <vType id="taxi" vClass="taxi">
        <param key="has.taxi.device" value="true"/>
    </vType>
    <vehicle id="trip_0" type="taxi" depart="0.000" route="!trip_0!var#1" distance="1101.37 3" speedFactor="1.030000" reroute="1" line="taxi" state="262146 0 5 5.100000 0 11.315434 99000 0 0 1" pos="55.747001 50.747001 14.085465" speed="14.085465 13.520068" angle="180.000000" posLat="0.000000" waitingTime="100000 0" lcStateBase="0.000000" lcState2="0 0 0 0 0">
        <stop lane="C1C2_1" startPos="0.000000" endPos="5.000000" duration="0.000" triggered="person" parking="1" permitted="p0" actType="pickup p0 (0)" started="59.000" ended="60.000"/>
        <stop lane="B0C0_1" startPos="285.600000" endPos="285.600000" duration="60.000" parking="1" actType="dropOff p0 (0)"/>
        <device id="vehroute_trip_0" state="1 0.000000 0.000000 5.100000 3 !NULL 0 !trip_0 device.rerouting -1 0 A0B0 0 !trip_0!var#1 taxi:prepare_dispatch 0 0 A0B0 0 !trip_0!var#2 taxi:dispatch 0 0"/>
        <device id="tripinfo_trip_0" state="A0B0_1 0 0 1096.27 0 0 0 1000 -1 -1000 NONE -1 0 -1"/>
        <device id="routing_trip_0" state="0 0"/>
        <device id="taxi_trip_0" state="2 0 450.37 41000" customers="p0" reservations="0"/>
        <device id="person_trip_0" state="0 0 0"/>
    </vehicle>
    <vehicle id="trip_1" type="taxi" depart="0.000" route="!trip_1!var#1" distance="396.42 3" speedFactor="0.969200" reroute="1" line="taxi" state="262146 0 2 5.100000 0 8.879095 99000 0 0 2" pos="227.168382 222.168382 13.285976" speed="13.285976 12.324182" angle="90.000000" posLat="0.000000" waitingTime="100000 1 37000 38000" lcStateBase="0.000000" lcState2="0 0 0 0 0">
        <stop lane="A2B2_1" triggered="person" started="30.000" ended="62.000"/>
        <stop lane="B2B1_1" startPos="0.000000" endPos="5.000000" duration="0.000" triggered="person" parking="1" permitted="p1" actType="pickup p1 (1)" started="69.000" ended="70.000"/>
        <stop lane="C2D2_1" startPos="285.600000" endPos="285.600000" duration="60.000" parking="1" actType="dropOff p1 (1)"/>
        <device id="vehroute_trip_1" state="1 0.000000 0.000000 5.100000 3 !NULL 0 !trip_1 device.rerouting -1 0 A2B2 60000 !trip_1!var#1 taxi:prepare_dispatch 0 0 A2B2 60000 !trip_1!var#2 taxi:dispatch 0 0"/>
        <device id="tripinfo_trip_1" state="A2B2_1 0 0 391.32 1000 0 1 33000 -1 -1000 NONE -1 0 -1"/>
        <device id="routing_trip_1" state="0 0"/>
        <device id="taxi_trip_1" state="2 0 321.96 31000" customers="p1" reservations="1"/>
        <device id="person_trip_1" state="0 0 0"/>
    </vehicle>
    <transportables type="person" state="10 10 0 0 0 0 0 8 0 0">
        <person id="p0" type="DEFAULT_PEDTYPE" depart="0.000" speedFactor="1.010400" state="0 1 0 6362 -1 1 60000 trip_0 701.647">
            <ride from="C1C2" to="B0C0" lines="taxi"/>
        </person>
        <person id="p1" type="DEFAULT_PEDTYPE" depart="10.000" speedFactor="1.082700" state="0 1 10000 5271 -1 1 70000 trip_1 296.529">
            <ride from="B2B1" to="C2D2" lines="taxi"/>
        </person>
        <person id="p2" type="DEFAULT_PEDTYPE" depart="20.000" speedFactor="1.030300" state="0 1 20000 -1 -1 0 0.000000 -1073741824.000000 -1073741824.000000">
            <ride from="C2C1" to="E1E2" lines="taxi"/>
        </person>
        <person id="p3" type="DEFAULT_PEDTYPE" depart="30.000" speedFactor="0.831000" state="0 1 30000 -1 -1 0 0.000000 -1073741824.000000 -1073741824.000000">
            <ride from="B1A1" to="B2B1" lines="taxi"/>
        </person>
        <person id="p4" type="DEFAULT_PEDTYPE" depart="40.000" speedFactor="1.045800" state="0 1 40000 -1 -1 0 0.000000 -1073741824.000000 -1073741824.000000">
            <ride from="A1A0" to="E2E1" lines="taxi"/>
        </person>
        <person id="p5" type="DEFAULT_PEDTYPE" depart="50.000" speedFactor="0.886000" state="0 1 50000 -1 -1 0 0.000000 -1073741824.000000 -1073741824.000000">
            <ride from="D0D1" to="F1F0" lines="taxi"/>
        </person>
        <person id="p6" type="DEFAULT_PEDTYPE" depart="60.000" speedFactor="0.937900" state="0 1 60000 -1 -1 0 0.000000 -1073741824.000000 -1073741824.000000">
            <ride from="D2E2" to="C2D2" lines="taxi"/>
        </person>
        <person id="p7" type="DEFAULT_PEDTYPE" depart="70.000" speedFactor="0.856900" state="0 1 70000 -1 -1 0 0.000000 -1073741824.000000 -1073741824.000000">
            <ride from="D0D1" to="C0C1" lines="taxi"/>
        </person>
        <person id="p8" type="DEFAULT_PEDTYPE" depart="80.000" speedFactor="1.090700" state="0 1 80000 -1 -1 0 0.000000 -1073741824.000000 -1073741824.000000">
            <ride from="B0B1" to="B2B1" lines="taxi"/>
        </person>
        <person id="p9" type="DEFAULT_PEDTYPE" depart="90.000" speedFactor="1.026300" state="0 1 90000 -1 -1 0 0.000000 -1073741824.000000 -1073741824.000000">
            <ride from="C1B1" to="E0D0" lines="taxi"/>
        </person>
    </transportables>
    <lane id="B1C1_1">
        <vehicles value="trip_1"/>
    </lane>
    <lane id="B2B1_1">
        <vehicles value="trip_0"/>
    </lane>
    <routingEngine last="100000" index="100">
        <edge id=":B0_6" speed="13.885359" pastSpeed="13.890000 13.890000 13.890000 13.890000 13.890000 13.890000 13.890000 13.890000 13.890000 13.890000 13.890000 13.890000 13.890000 13.890000 13.890000 13.890000 13.890000 13.890000 13.890000 13.890000 13.890000 13.890000 13.890000 13.890000 13.054661 13.890000 13.890000 13.890000 13.890000 13.890000 13.890000 13.890000 13.890000 13.890000 13.890000 13.890000 13.890000 13.890000 13.890000 13.890000 13.890000 13.890000 13.890000 13.890000 13.890000 13.890000 13.890000 13.890000 13.890000 13.890000 13.890000 13.890000 13.890000 13.890000 13.890000 13.890000 13.890000 13.890000 13.890000 13.890000 13.890000 13.890000 13.890000 13.890000 13.890000 13.890000 13.890000 13.890000 13.890000 13.890000 13.890000 13.890000 13.890000 13.890000 13.890000 13.890000 13.890000 13.890000 13.890000 13.890000 13.890000 13.890000 13.890000 13.890000 13.890000 13.890000 13.890000 13.890000 13.890000 13.890000 13.890000 13.890000 13.890000 13.890000 13.890000 13.890000 13.890000 13.890000 13.890000 13.890000 13.890000 13.890000 13.890000 13.890000 13.890000 13.890000 13.890000 13.890000 13.890000 13.890000 13.890000 13.890000 13.890000 13.890000 13.890000 13.890000 13.890000 13.890000 13.890000 13.890000 13.890000 13.890000 13.890000 13.890000 13.890000 13.890000 13.890000 13.890000 13.890000 13.890000 13.890000 13.890000 13.890000 13.890000 13.890000 13.890000 13.890000 13.890000 13.890000 13.890000 13.890000 13.890000 13.890000 13.890000 13.890000 13.890000 13.890000 13.890000 13.890000 13.890000 13.890000 13.890000 13.890000 13.890000 13.890000 13.890000 13.890000 13.890000 13.890000 13.890000 13.890000 13.890000 13.890000 13.890000 13.890000 13.890000 13.890000 13.890000 13.890000 13.890000 13.890000 13.890000 13.890000 13.890000 13.890000 13.890000 13.890000 13.890000 13.890000 13.890000"/>
        <edge id=":B1_2" speed="7.982082" pastSpeed="8.000000 8.000000 8.000000 8.000000 8.000000 8.000000 8.000000 8.000000 8.000000 8.000000 8.000000 8.000000 8.000000 8.000000 8.000000 8.000000 8.000000 8.000000 8.000000 8.000000 8.000000 8.000000 8.000000 8.000000 8.000000 8.000000 8.000000 8.000000 8.000000 8.000000 8.000000 8.000000 8.000000 8.000000 8.000000 8.000000 8.000000 8.000000 8.000000 8.000000 8.000000 8.000000 8.000000 8.000000 8.000000 8.000000 8.000000 8.000000 8.000000 8.000000 8.000000 8.000000 8.000000 8.000000 8.000000 8.000000 8.000000 8.000000 8.000000 8.000000 8.000000 8.000000 8.000000 8.000000 8.000000 8.000000 8.000000 8.000000 8.000000 8.000000 8.000000 8.000000 8.000000 8.000000 8.000000 8.000000 8.000000 8.000000 8.000000 4.774677 8.000000 8.000000 8.000000 8.000000 8.000000 8.000000 8.000000 8.000000 8.000000 8.000000 8.000000 8.000000 8.000000 8.000000 8.000000 8.000000 8.000000 8.000000 8.000000 8.000000 8.000000 8.000000 8.000000 8.000000 8.000000 8.000000 8.000000 8.000000 8.000000 8.000000 8.000000 8.000000 8.000000 8.000000 8.000000 8.000000 8.000000 8.000000 8.000000 8.000000 8.000000 8.000000 8.000000 8.000000 8.000000 8.000000 8.000000 8.000000 8.000000 8.000000 8.000000 8.000000 8.000000 8.000000 8.000000 8.000000 8.000000 8.000000 8.000000 8.000000 8.000000 8.000000 8.000000 8.000000 8.000000 8.000000 8.000000 8.000000 8.000000 8.000000 8.000000 8.000000 8.000000 8.000000 8.000000 8.000000 8.000000 8.000000 8.000000 8.000000 8.000000 8.000000 8.000000 8.000000 8.000000 8.000000 8.000000 8.000000 8.000000 8.000000 8.000000 8.000000 8.000000 8.000000 8.000000 8.000000 8.000000 8.000000 8.000000 8.000000"/>
        <edge id=":B1_16" speed="7.992742" pastSpeed="8.000000 8.000000 8.000000 8.000000 8.000000 8.000000 8.000000 8.000000 8.000000 8.000000 8.000000 8.000000 8.000000 8.000000 8.000000 8.000000 8.000000 8.000000 8.000000 8.000000 8.000000 8.000000 8.000000 8.000000 8.000000 8.000000 8.000000 8.000000 8.000000 8.000000 8.000000 8.000000 8.000000 8.000000 8.000000 8.000000 8.000000 8.000000 8.000000 8.000000 8.000000 8.000000 8.000000 8.000000 8.000000 8.000000 8.000000 8.000000 8.000000 8.000000 8.000000 8.000000 8.000000 8.000000 8.000000 8.000000 8.000000 8.000000 8.000000 8.000000 8.000000 8.000000 8.000000 8.000000 8.000000 8.000000 8.000000 8.000000 8.000000 8.000000 8.000000 8.000000 8.000000 8.000000 8.000000 8.000000 8.000000 8.000000 8.000000 8.000000 6.693628 8.000000 8.000000 8.000000 8.000000 8.000000 8.000000 8.000000 8.000000 8.000000 8.000000 8.000000 8.000000 8.000000 8.000000 8.000000 8.000000 8.000000 8.000000 8.000000 8.000000 8.000000 8.000000 8.000000 8.000000 8.000000 8.000000 8.000000 8.000000 8.000000 8.000000 8.000000 8.000000 8.000000 8.000000 8.000000 8.000000 8.000000 8.000000 8.000000 8.000000 8.000000 8.000000 8.000000 8.000000 8.000000 8.000000 8.000000 8.000000 8.000000 8.000000 8.000000 8.000000 8.000000 8.000000 8.000000 8.000000 8.000000 8.000000 8.000000 8.000000 8.000000 8.000000 8.000000 8.000000 8.000000 8.000000 8.000000 8.000000 8.000000 8.000000 8.000000 8.000000 8.000000 8.000000 8.000000 8.000000 8.000000 8.000000 8.000000 8.000000 8.000000 8.000000 8.000000 8.000000 8.000000 8.000000 8.000000 8.000000 8.000000 8.000000 8.000000 8.000000 8.000000 8.000000 8.000000 8.000000 8.000000 8.000000 8.000000"/>
        <edge id=":B2_1" speed="7.996044" pastSpeed="8.000000 8.000000 8.000000 8.000000 8.000000 8.000000 8.000000 8.000000 8.000000 8.000000 8.000000 8.000000 8.000000 8.000000 8.000000 8.000000 8.000000 8.000000 8.000000 8.000000 8.000000 8.000000 8.000000 8.000000 8.000000 8.000000 8.000000 8.000000 8.000000 8.000000 8.000000 8.000000 8.000000 8.000000 8.000000 8.000000 8.000000 8.000000 8.000000 8.000000 8.000000 8.000000 8.000000 8.000000 8.000000 8.000000 8.000000 8.000000 8.000000 8.000000 8.000000 8.000000 8.000000 8.000000 8.000000 8.000000 8.000000 8.000000 8.000000 8.000000 8.000000 8.000000 8.000000 8.000000 8.000000 8.000000 8.000000 8.000000 8.000000 8.000000 8.000000 8.000000 8.000000 8.000000 8.000000 8.000000 8.000000 8.000000 8.000000 8.000000 8.000000 8.000000 8.000000 8.000000 8.000000 8.000000 8.000000 8.000000 8.000000 8.000000 8.000000 8.000000 8.000000 7.287900 8.000000 8.000000 8.000000 8.000000 8.000000 8.000000 8.000000 8.000000 8.000000 8.000000 8.000000 8.000000 8.000000 8.000000 8.000000 8.000000 8.000000 8.000000 8.000000 8.000000 8.000000 8.000000 8.000000 8.000000 8.000000 8.000000 8.000000 8.000000 8.000000 8.000000 8.000000 8.000000 8.000000 8.000000 8.000000 8.000000 8.000000 8.000000 8.000000 8.000000 8.000000 8.000000 8.000000 8.000000 8.000000 8.000000 8.000000 8.000000 8.000000 8.000000 8.000000 8.000000 8.000000 8.000000 8.000000 8.000000 8.000000 8.000000 8.000000 8.000000 8.000000 8.000000 8.000000 8.000000 8.000000 8.000000 8.000000 8.000000 8.000000 8.000000 8.000000 8.000000 8.000000 8.000000 8.000000 8.000000 8.000000 8.000000 8.000000 8.000000 8.000000 8.000000 8.000000 8.000000 8.000000 8.000000"/>
        <edge id=":B2_9" speed="7.999378" pastSpeed="8.000000 8.000000 8.000000 8.000000 8.000000 8.000000 8.000000 8.000000 8.000000 8.000000 8.000000 8.000000 8.000000 8.000000 8.000000 8.000000 8.000000 8.000000 8.000000 8.000000 8.000000 8.000000 8.000000 8.000000 8.000000 8.000000 8.000000 8.000000 8.000000 8.000000 8.000000 8.000000 8.000000 8.000000 8.000000 8.000000 8.000000 8.000000 8.000000 8.000000 8.000000 8.000000 8.000000 8.000000 8.000000 8.000000 8.000000 8.000000 8.000000 8.000000 8.000000 8.000000 8.000000 8.000000 8.000000 8.000000 8.000000 8.000000 8.000000 8.000000 8.000000 8.000000 8.000000 8.000000 8.000000 8.000000 8.000000 8.000000 8.000000 8.000000 8.000000 8.000000 8.000000 8.000000 8.000000 8.000000 8.000000 8.000000 8.000000 8.000000 8.000000 8.000000 8.000000 8.000000 8.000000 8.000000 8.000000 8.000000 8.000000 8.000000 8.000000 8.000000 8.000000 8.000000 7.888031 8.000000 8.000000 8.000000 8.000000 8.000000 8.000000 8.000000 8.000000 8.000000 8.000000 8.000000 8.000000 8.000000 8.000000 8.000000 8.000000 8.000000 8.000000 8.000000 8.000000 8.000000 8.000000 8.000000 8.000000 8.000000 8.000000 8.000000 8.000000 8.000000 8.000000 8.000000 8.000000 8.000000 8.000000 8.000000 8.000000 8.000000 8.000000 8.000000 8.000000 8.000000 8.000000 8.000000 8.000000 8.000000 8.000000 8.000000 8.000000 8.000000 8.000000 8.000000 8.000000 8.000000 8.000000 8.000000 8.000000 8.000000 8.000000 8.000000 8.000000 8.000000 8.000000 8.000000 8.000000 8.000000 8.000000 8.000000 8.000000 8.000000 8.000000 8.000000 8.000000 8.000000 8.000000 8.000000 8.000000 8.000000 8.000000 8.000000 8.000000 8.000000 8.000000 8.000000 8.000000 8.000000"/>
        <edge id=":B2_6" speed="6.466327" pastSpeed="6.510000 6.510000 6.510000 6.510000 6.510000 6.510000 6.510000 6.510000 6.510000 6.510000 6.510000 6.510000 6.510000 6.510000 6.510000 6.510000 6.510000 6.510000 6.510000 6.510000 6.510000 6.510000 6.510000 6.510000 6.510000 6.510000 6.510000 6.510000 6.510000 6.510000 6.510000 6.510000 6.510000 6.510000 6.510000 6.510000 6.510000 6.510000 6.510000 6.510000 6.510000 6.510000 6.510000 6.510000 6.510000 6.510000 6.510000 6.510000 6.510000 6.510000 6.510000 6.510000 6.510000 6.510000 6.510000 6.510000 6.510000 6.510000 6.510000 6.510000 6.510000 6.510000 6.510000 1.569361 3.589585 6.510000 6.510000 6.510000 6.510000 6.510000 6.510000 6.510000 6.510000 6.510000 6.510000 6.510000 6.510000 6.510000 6.510000 6.510000 6.510000 6.510000 6.510000 6.510000 6.510000 6.510000 6.510000 6.510000 6.510000 6.510000 6.510000 6.510000 6.510000 6.510000 6.510000 6.510000 6.510000 6.510000 6.510000 6.510000 6.510000 6.510000 6.510000 6.510000 6.510000 6.510000 6.510000 6.510000 6.510000 6.510000 6.510000 6.510000 6.510000 6.510000 6.510000 6.510000 6.510000 6.510000 6.510000 6.510000 6.510000 6.510000 6.510000 6.510000 6.510000 6.510000 6.510000 6.510000 6.510000 6.510000 6.510000 6.510000 6.510000 6.510000 6.510000 6.510000 6.510000 6.510000 6.510000 6.510000 6.510000 6.510000 6.510000 6.510000 6.510000 6.510000 6.510000 6.510000 6.510000 6.510000 6.510000 6.510000 6.510000 6.510000 6.510000 6.510000 6.510000 6.510000 6.510000 6.510000 6.510000 6.510000 6.510000 6.510000 6.510000 6.510000 6.510000 6.510000 6.510000 6.510000 6.510000 6.510000 6.510000 6.510000 6.510000 6.510000 6.510000 6.510000 6.510000 6.510000"/>
        <edge id=":C0_7" speed="7.985873" pastSpeed="8.000000 8.000000 8.000000 8.000000 8.000000 8.000000 8.000000 8.000000 8.000000 8.000000 8.000000 8.000000 8.000000 8.000000 8.000000 8.000000 8.000000 8.000000 8.000000 8.000000 8.000000 8.000000 8.000000 8.000000 8.000000 8.000000 8.000000 8.000000 8.000000 8.000000 8.000000 8.000000 8.000000 8.000000 8.000000 8.000000 8.000000 8.000000 8.000000 8.000000 8.000000 8.000000 8.000000 8.000000 8.000000 8.000000 8.000000 5.457081 8.000000 8.000000 8.000000 8.000000 8.000000 8.000000 8.000000 8.000000 8.000000 8.000000 8.000000 8.000000 8.000000 8.000000 8.000000 8.000000 8.000000 8.000000 8.000000 8.000000 8.000000 8.000000 8.000000 8.000000 8.000000 8.000000 8.000000 8.000000 8.000000 8.000000 8.000000 8.000000 8.000000 8.000000 8.000000 8.000000 8.000000 8.000000 8.000000 8.000000 8.000000 8.000000 8.000000 8.000000 8.000000 8.000000 8.000000 8.000000 8.000000 8.000000 8.000000 8.000000 8.000000 8.000000 8.000000 8.000000 8.000000 8.000000 8.000000 8.000000 8.000000 8.000000 8.000000 8.000000 8.000000 8.000000 8.000000 8.000000 8.000000 8.000000 8.000000 8.000000 8.000000 8.000000 8.000000 8.000000 8.000000 8.000000 8.000000 8.000000 8.000000 8.000000 8.000000 8.000000 8.000000 8.000000 8.000000 8.000000 8.000000 8.000000 8.000000 8.000000 8.000000 8.000000 8.000000 8.000000 8.000000 8.000000 8.000000 8.000000 8.000000 8.000000 8.000000 8.000000 8.000000 8.000000 8.000000 8.000000 8.000000 8.000000 8.000000 8.000000 8.000000 8.000000 8.000000 8.000000 8.000000 8.000000 8.000000 8.000000 8.000000 8.000000 8.000000 8.000000 8.000000 8.000000 8.000000 8.000000 8.000000 8.000000 8.000000 8.000000"/>
        <edge id=":C0_10" speed="7.999800" pastSpeed="8.000000 8.000000 8.000000 8.000000 8.000000 8.000000 8.000000 8.000000 8.000000 8.000000 8.000000 8.000000 8.000000 8.000000 8.000000 8.000000 8.000000 8.000000 8.000000 8.000000 8.000000 8.000000 8.000000 8.000000 8.000000 8.000000 8.000000 8.000000 8.000000 8.000000 8.000000 8.000000 8.000000 8.000000 8.000000 8.000000 8.000000 8.000000 8.000000 8.000000 8.000000 8.000000 8.000000 8.000000 8.000000 8.000000 8.000000 8.000000 7.963966 8.000000 8.000000 8.000000 8.000000 8.000000 8.000000 8.000000 8.000000 8.000000 8.000000 8.000000 8.000000 8.000000 8.000000 8.000000 8.000000 8.000000 8.000000 8.000000 8.000000 8.000000 8.000000 8.000000 8.000000 8.000000 8.000000 8.000000 8.000000 8.000000 8.000000 8.000000 8.000000 8.000000 8.000000 8.000000 8.000000 8.000000 8.000000 8.000000 8.000000 8.000000 8.000000 8.000000 8.000000 8.000000 8.000000 8.000000 8.000000 8.000000 8.000000 8.000000 8.000000 8.000000 8.000000 8.000000 8.000000 8.000000 8.000000 8.000000 8.000000 8.000000 8.000000 8.000000 8.000000 8.000000 8.000000 8.000000 8.000000 8.000000 8.000000 8.000000 8.000000 8.000000 8.000000 8.000000 8.000000 8.000000 8.000000 8.000000 8.000000 8.000000 8.000000 8.000000 8.000000 8.000000 8.000000 8.000000 8.000000 8.000000 8.000000 8.000000 8.000000 8.000000 8.000000 8.000000 8.000000 8.000000 8.000000 8.000000 8.000000 8.000000 8.000000 8.000000 8.000000 8.000000 8.000000 8.000000 8.000000 8.000000 8.000000 8.000000 8.000000 8.000000 8.000000 8.000000 8.000000 8.000000 8.000000 8.000000 8.000000 8.000000 8.000000 8.000000 8.000000 8.000000 8.000000 8.000000 8.000000 8.000000 8.000000 8.000000"/>
        <edge id=":C1_9" speed="13.871936" pastSpeed="13.890000 13.890000 13.890000 13.890000 13.890000 13.890000 13.890000 13.890000 13.890000 13.890000 13.890000 13.890000 13.890000 13.890000 13.890000 13.890000 13.890000 13.890000 13.890000 13.890000 13.890000 13.890000 13.890000 13.890000 13.890000 13.890000 13.890000 13.890000 13.890000 13.890000 13.890000 13.890000 13.890000 13.890000 13.890000 13.890000 13.890000 13.890000 13.890000 13.890000 13.890000 13.890000 13.890000 13.890000 13.890000 13.890000 13.890000 13.890000 13.890000 13.890000 13.890000 13.890000 13.890000 13.890000 13.890000 13.712906 10.815657 13.890000 13.890000 13.890000 13.890000 13.890000 13.890000 13.890000 13.890000 13.890000 13.890000 13.890000 13.890000 13.890000 13.890000 13.890000 13.890000 13.890000 13.890000 13.890000 13.890000 13.890000 13.890000 13.890000 13.890000 13.890000 13.890000 13.890000 13.890000 13.890000 13.890000 13.890000 13.890000 13.890000 13.890000 13.890000 13.890000 13.890000 13.890000 13.890000 13.890000 13.890000 13.890000 13.890000 13.890000 13.890000 13.890000 13.890000 13.890000 13.890000 13.890000 13.890000 13.890000 13.890000 13.890000 13.890000 13.890000 13.890000 13.890000 13.890000 13.890000 13.890000 13.890000 13.890000 13.890000 13.890000 13.890000 13.890000 13.890000 13.890000 13.890000 13.890000 13.890000 13.890000 13.890000 13.890000 13.890000 13.890000 13.890000 13.890000 13.890000 13.890000 13.890000 13.890000 13.890000 13.890000 13.890000 13.890000 13.890000 13.890000 13.890000 13.890000 13.890000 13.890000 13.890000 13.890000 13.890000 13.890000 13.890000 13.890000 13.890000 13.890000 13.890000 13.890000 13.890000 13.890000 13.890000 13.890000 13.890000 13.890000 13.890000 13.890000 13.890000 13.890000 13.890000 13.890000 13.890000 13.890000 13.890000 13.890000 13.890000 13.890000 13.890000 13.890000"/>
        <edge id=":C2_4" speed="7.997740" pastSpeed="8.000000 8.000000 8.000000 8.000000 8.000000 8.000000 8.000000 8.000000 8.000000 8.000000 8.000000 8.000000 8.000000 8.000000 8.000000 8.000000 8.000000 8.000000 8.000000 8.000000 8.000000 8.000000 8.000000 8.000000 8.000000 8.000000 8.000000 8.000000 8.000000 8.000000 8.000000 8.000000 8.000000 8.000000 8.000000 8.000000 8.000000 8.000000 8.000000 8.000000 8.000000 8.000000 8.000000 8.000000 8.000000 8.000000 8.000000 8.000000 8.000000 8.000000 8.000000 8.000000 8.000000 8.000000 8.000000 8.000000 8.000000 8.000000 8.000000 8.000000 8.000000 8.000000 8.000000 8.000000 8.000000 8.000000 8.000000 8.000000 8.000000 7.577904 8.015358 8.000000 8.000000 8.000000 8.000000 8.000000 8.000000 8.000000 8.000000 8.000000 8.000000 8.000000 8.000000 8.000000 8.000000 8.000000 8.000000 8.000000 8.000000 8.000000 8.000000 8.000000 8.000000 8.000000 8.000000 8.000000 8.000000 8.000000 8.000000 8.000000 8.000000 8.000000 8.000000 8.000000 8.000000 8.000000 8.000000 8.000000 8.000000 8.000000 8.000000 8.000000 8.000000 8.000000 8.000000 8.000000 8.000000 8.000000 8.000000 8.000000 8.000000 8.000000 8.000000 8.000000 8.000000 8.000000 8.000000 8.000000 8.000000 8.000000 8.000000 8.000000 8.000000 8.000000 8.000000 8.000000 8.000000 8.000000 8.000000 8.000000 8.000000 8.000000 8.000000 8.000000 8.000000 8.000000 8.000000 8.000000 8.000000 8.000000 8.000000 8.000000 8.000000 8.000000 8.000000 8.000000 8.000000 8.000000 8.000000 8.000000 8.000000 8.000000 8.000000 8.000000 8.000000 8.000000 8.000000 8.000000 8.000000 8.000000 8.000000 8.000000 8.000000 8.000000 8.000000 8.000000 8.000000 8.000000 8.000000 8.000000"/>
        <edge id="A0B0" speed="13.728382" pastSpeed="6.945000 8.198721 9.274504 9.962910 11.154618 11.927270 12.825661 13.797501 13.740558 13.915531 14.061913 14.054553 13.636795 13.799518 13.463158 13.773225 13.800890 13.608963 13.966236 13.778848 13.485701 13.568533 13.728341 13.799736 13.890000 13.890000 13.890000 13.890000 13.890000 13.890000 13.890000 13.890000 13.890000 13.890000 13.890000 13.890000 13.890000 13.890000 13.890000 13.890000 13.890000 13.890000 13.890000 13.890000 13.890000 13.890000 13.890000 13.890000 13.890000 13.890000 13.890000 13.890000 13.890000 13.890000 13.890000 13.890000 13.890000 13.890000 13.890000 13.890000 13.890000 13.890000 13.890000 13.890000 13.890000 13.890000 13.890000 13.890000 13.890000 13.890000 13.890000 13.890000 13.890000 13.890000 13.890000 13.890000 13.890000 13.890000 13.890000 13.890000 13.890000 13.890000 13.890000 13.890000 13.890000 13.890000 13.890000 13.890000 13.890000 13.890000 13.890000 13.890000 13.890000 13.890000 13.890000 13.890000 13.890000 13.890000 13.890000 13.890000 13.890000 13.890000 13.890000 13.890000 13.890000 13.890000 13.890000 13.890000 13.890000 13.890000 13.890000 13.890000 13.890000 13.890000 13.890000 13.890000 13.890000 13.890000 13.890000 13.890000 13.890000 13.890000 13.890000 13.890000 13.890000 13.890000 13.890000 13.890000 13.890000 13.890000 13.890000 13.890000 13.890000 13.890000 13.890000 13.890000 13.890000 13.890000 13.890000 13.890000 13.890000 13.890000 13.890000 13.890000 13.890000 13.890000 13.890000 13.890000 13.890000 13.890000 13.890000 13.890000 13.890000 13.890000 13.890000 13.890000 13.890000 13.890000 13.890000 13.890000 13.890000 13.890000 13.890000 13.890000 13.890000 13.890000 13.890000 13.890000 13.890000 13.890000 13.890000 13.890000 13.890000 13.890000 13.890000 13.890000 13.890000 13.890000 13.890000 13.890000"/>