<?xml version="1.0"?>

<!-- generated on 08/08/12 10:36:19 by SUMO dfrouter Version dev-SVN-rUNKNOWN
<?xml version="1.0" encoding="UTF-8"?>

<configuration xmlns:xsi="http://www.w3.org/2001/XMLSchema-instance" xsi:noNamespaceSchemaLocation="http://sumo.sf.net/xsd/dfrouterConfiguration.xsd">

    <input>
        <net-file value="input_messstrecke.net.xml"/>
        <detector-files value="input_messstrecke.det.xml"/>
    </input>

    <output>
        <detectors-poi-output value="detectors.poi.xml"/>
    </output>

    <report>
        <verbose value="true"/>
        <log value="log.txt"/>
    </report>

</configuration>
-->

<pois>
    <poi id="MQ11Fs1" type="source_detector_position" color="0.00,1.00,0.00" lane="ErnstRuska2O_0" pos="5.00"/>
    <poi id="MQ11Fs2" type="source_detector_position" color="0.00,1.00,0.00" lane="ErnstRuska2O_1" pos="5.00"/>
    <poi id="MQ12Fs1" type="between_detector_position" color="0.00,0.00,1.00" lane="ErnstRuska2W_0" pos="-5.00"/>
    <poi id="MQ12Fs2" type="between_detector_position" color="0.00,0.00,1.00" lane="ErnstRuska2W_1" pos="-5.00"/>
    <poi id="MQ13Fs1N" type="sink_detector_position" color="1.00,0.00,0.00" lane="EinsteinN_0" pos="5.00"/>
    <poi id="MQ13Fs1S" type="discarded_detector_position" color="0.20,0.20,0.20" lane="EinsteinS_0" pos="-5.00"/>
    <poi id="MQ21Fs1" type="between_detector_position" color="0.00,0.00,1.00" lane="ErnstRuska231O_0" pos="-5.00"/>
    <poi id="MQ21Fs2" type="between_detector_position" color="0.00,0.00,1.00" lane="ErnstRuska231O_1" pos="-5.00"/>
    <poi id="MQ21Fs3" type="between_detector_position" color="0.00,0.00,1.00" lane="ErnstRuska231O_2" pos="-5.00"/>
    <poi id="MQ25Fs1" type="between_detector_position" color="0.00,0.00,1.00" lane="ErnstRuska231W_0" pos="5.00"/>
    <poi id="MQ25Fs2" type="between_detector_position" color="0.00,0.00,1.00" lane="ErnstRuska231W_1" pos="5.00"/>
    <poi id="MQ22Fs1" type="between_detector_position" color="0.00,0.00,1.00" lane="ErnstRuska232O_0" pos="-5.00"/>
    <poi id="MQ22Fs2" type="between_detector_position" color="0.00,0.00,1.00" lane="ErnstRuska232O_1" pos="-5.00"/>
    <poi id="MQ24Fs1" type="between_detector_position" color="0.00,0.00,1.00" lane="ErnstRuska232W_0" pos="5.00"/>
    <poi id="MQ24Fs2" type="between_detector_position" color="0.00,0.00,1.00" lane="ErnstRuska232W_1" pos="5.00"/>
    <poi id="MQ23Fs1" type="between_detector_position" color="0.00,0.00,1.00" lane="ErnstRuska3W_0" pos="-5.00"/>
    <poi id="MQ23Fs2" type="between_detector_position" color="0.00,0.00,1.00" lane="ErnstRuska3W_1" pos="-5.00"/>
    <poi id="MQ26Fs1N" type="sink_detector_position" color="1.00,0.00,0.00" lane="HavestadtN_0" pos="5.00"/>
    <poi id="MQ26Fs2N" type="sink_detector_position" color="1.00,0.00,0.00" lane="HavestadtN_1" pos="5.00"/>
    <poi id="MQ28Fs1S" type="source_detector_position" color="0.00,1.00,0.00" lane="HavestadtS_0" pos="-5.00"/>
    <poi id="MQ28Fs2S" type="source_detector_position" color="0.00,1.00,0.00" lane="HavestadtS_1" pos="-5.00"/>
    <poi id="MQ31Fs1" type="between_detector_position" color="0.00,0.00,1.00" lane="ErnstRuska3O_0" pos="-5.00"/>
    <poi id="MQ31Fs2" type="between_detector_position" color="0.00,0.00,1.00" lane="ErnstRuska3O_1" pos="-5.00"/>
    <poi id="MQ34Fs1" type="between_detector_position" color="0.00,0.00,1.00" lane="ErnstRuska3W_0" pos="5.00"/>
    <poi id="MQ34Fs2" type="between_detector_position" color="0.00,0.00,1.00" lane="ErnstRuska3W_1" pos="5.00"/>
    <poi id="MQ32Fs1" type="between_detector_position" color="0.00,0.00,1.00" lane="ErnstRuska4O_0" pos="5.00"/>
    <poi id="MQ32Fs2" type="between_detector_position" color="0.00,0.00,1.00" lane="ErnstRuska4O_1" pos="5.00"/>
    <poi id="MQ33Fs1" type="between_detector_position" color="0.00,0.00,1.00" lane="ErnstRuska4W_0" pos="-5.00"/>
    <poi id="MQ33Fs2" type="between_detector_position" color="0.00,0.00,1.00" lane="ErnstRuska4W_1" pos="-5.00"/>
    <poi id="MQ35Fs1N" type="sink_detector_position" color="1.00,0.00,0.00" lane="VolmerN_0" pos="5.00"/>
    <poi id="MQ35Fs1S" type="source_detector_position" color="0.00,1.00,0.00" lane="VolmerS_0" pos="-5.00"/>
    <poi id="MQ41Fs1" type="between_detector_position" color="0.00,0.00,1.00" lane="ErnstRuska4O_0" pos="-5.00"/>
    <poi id="MQ41Fs2" type="between_detector_position" color="0.00,0.00,1.00" lane="ErnstRuska4O_1" pos="-5.00"/>
    <poi id="MQ44Fs1" type="between_detector_position" color="0.00,0.00,1.00" lane="ErnstRuska4W_0" pos="5.00"/>
    <poi id="MQ44Fs2" type="between_detector_position" color="0.00,0.00,1.00" lane="ErnstRuska4W_1" pos="5.00"/>
    <poi id="MQ42Fs1" type="sink_detector_position" color="1.00,0.00,0.00" lane="ErnstRuska5O_0" pos="5.00"/>
    <poi id="MQ42Fs2" type="sink_detector_position" color="1.00,0.00,0.00" lane="ErnstRuska5O_1" pos="5.00"/>
    <poi id="MQ43Fs1" type="source_detector_position" color="0.00,1.00,0.00" lane="ErnstRuska5W_0" pos="-5.00"/>
    <poi id="MQ43Fs2" type="source_detector_position" color="0.00,1.00,0.00" lane="ErnstRuska5W_1" pos="-5.00"/>
    <poi id="MQ43Fs3" type="source_detector_position" color="0.00,1.00,0.00" lane="ErnstRuska5W_2" pos="-5.00"/>
    <poi id="MQ45Fs1N" type="source_detector_position" color="0.00,1.00,0.00" lane="AltglienickerBreitN_0" pos="-5.00"/>
    <poi id="MQ45Fs2N" type="source_detector_position" color="0.00,1.00,0.00" lane="AltglienickerBreitN_1" pos="-5.00"/>
    <poi id="MQ45Fs1S" type="sink_detector_position" color="1.00,0.00,0.00" lane="AltglienickerBreitS_0" pos="5.00"/>
</pois>
