<?xml version="1.0" encoding="UTF-8"?>

<!-- generated on Wed May 22 13:37:25 2019 by Eclipse SUMO Version v1_2_0+0252-83989c2
This data file and the accompanying materials
are made available under the terms of the Eclipse Public License v2.0
which accompanies this distribution, and is available at
http://www.eclipse.org/legal/epl-v20.html
SPDX-License-Identifier: EPL-2.0
<configuration xmlns:xsi="http://www.w3.org/2001/XMLSchema-instance" xsi:noNamespaceSchemaLocation="http://sumo.dlr.de/xsd/sumoConfiguration.xsd">

    <input>
        <net-file value="net3.net.xml"/>
        <route-files value="input_routes.rou.xml"/>
        <additional-files value="input_additional2.add.xml"/>
    </input>

    <output>
        <write-license value="true"/>
        <tripinfo-output value="tripinfos.xml"/>
    </output>

    <processing>
        <collision.check-junctions value="true"/>
        <default.speeddev value="0"/>
        <pedestrian.model value="striping"/>
        <pedestrian.striping.dawdling value="0"/>
    </processing>

    <report>
        <xml-validation value="never"/>
        <no-step-log value="true"/>
    </report>

</configuration>
-->

<tripinfos xmlns:xsi="http://www.w3.org/2001/XMLSchema-instance" xsi:noNamespaceSchemaLocation="http://sumo.dlr.de/xsd/tripinfo_file.xsd">
    <tripinfo id="v0" depart="18.00" departLane="SC_1" departPos="60.00" departSpeed="0.00" departDelay="0.00" arrival="60.00" arrivalLane="CN_1" arrivalPos="90.85" arrivalSpeed="13.89" duration="42.00" routeLength="140.00" waitingTime="24.00" waitingCount="2" stopTime="0.00" timeLoss="30.98" rerouteNo="0" devices="tripinfo_v0" vType="t1" speedFactor="1.00" vaporized=""/>
    <personinfo id="p0" depart="10.00" type="DEFAULT_PEDTYPE">
        <walk depart="10.00" departPos="89.85" arrival="91.00" arrivalPos="90.84" duration="81.00" routeLength="110.14" timeLoss="1.70" maxSpeed="1.39"/>
    </personinfo>
    <personinfo id="p2" depart="12.00" type="DEFAULT_PEDTYPE">
        <walk depart="12.00" departPos="89.85" arrival="107.00" arrivalPos="90.84" duration="95.00" routeLength="110.14" timeLoss="15.70" maxSpeed="1.39"/>
    </personinfo>
    <personinfo id="p3" depart="13.00" type="DEFAULT_PEDTYPE">
        <walk depart="13.00" departPos="89.85" arrival="119.00" arrivalPos="90.84" duration="106.00" routeLength="110.14" timeLoss="26.70" maxSpeed="1.39"/>
    </personinfo>
    <personinfo id="blocker" depart="18.00" type="DEFAULT_PEDTYPE">
        <walk depart="18.00" departPos="1.00" arrival="335.00" arrivalPos="90.84" duration="317.00" routeLength="19.31" timeLoss="303.10" maxSpeed="1.39"/>
    </personinfo>
    <personinfo id="p1" depart="11.00" type="DEFAULT_PEDTYPE">
        <walk depart="11.00" departPos="89.85" arrival="391.00" arrivalPos="90.84" duration="380.00" routeLength="110.14" timeLoss="300.70" maxSpeed="1.39"/>
    </personinfo>
</tripinfos>
