<?xml version="1.0" encoding="UTF-8"?>

<!-- generated on Wed Nov  1 14:06:41 2017 by SUMO Version v0_31_0-844-g4947727
<?xml version="1.0" encoding="UTF-8"?>

<configuration xmlns:xsi="http://www.w3.org/2001/XMLSchema-instance" xsi:noNamespaceSchemaLocation="http://sumo.dlr.de/xsd/sumoConfiguration.xsd">

    <input>
        <net-file value="net3.net.xml"/>
        <route-files value="input_routes.rou.xml"/>
        <additional-files value="input_additional2.add.xml"/>
    </input>

    <output>
        <tripinfo-output value="tripinfos.xml"/>
    </output>

    <processing>
        <collision.check-junctions value="true"/>
        <pedestrian.model value="striping"/>
        <pedestrian.striping.dawdling value="0"/>
    </processing>

    <report>
        <xml-validation value="never"/>
        <no-step-log value="true"/>
    </report>

</configuration>
-->

<tripinfos xmlns:xsi="http://www.w3.org/2001/XMLSchema-instance" xsi:noNamespaceSchemaLocation="http://sumo.dlr.de/xsd/tripinfo_file.xsd">
    <personinfo id="p0" depart="10.00">
        <walk depart="10.00" arrival="91.00" arrivalPos="90.85" duration="81.00" routeLength="91.85" timeLoss="14.87" maxSpeed="1.39"/>
    </personinfo>
    <personinfo id="blocker" depart="18.00">
        <walk depart="18.00" arrival="337.00" arrivalPos="90.85" duration="319.00" routeLength="1.00" timeLoss="318.28" maxSpeed="1.39"/>
    </personinfo>
    <tripinfo id="v0" depart="18.00" departLane="SC_1" departPos="60.00" departSpeed="0.00" departDelay="0.00" arrival="340.00" arrivalLane="CN_1" arrivalPos="90.85" arrivalSpeed="13.89" duration="322.00" routeLength="140.00" waitSteps="304" timeLoss="310.97" rerouteNo="0" devices="tripinfo_v0" vType="t1" speedFactor="1.00" vaporized=""/>
    <personinfo id="p1" depart="11.00">
        <walk depart="11.00" arrival="391.00" arrivalPos="90.85" duration="380.00" routeLength="91.85" timeLoss="313.87" maxSpeed="1.39"/>
    </personinfo>
    <personinfo id="p2" depart="12.00">
        <walk depart="12.00" arrival="393.00" arrivalPos="90.85" duration="381.00" routeLength="91.85" timeLoss="314.87" maxSpeed="1.39"/>
    </personinfo>
    <personinfo id="p3" depart="13.00">
        <walk depart="13.00" arrival="395.00" arrivalPos="90.85" duration="382.00" routeLength="91.85" timeLoss="315.87" maxSpeed="1.39"/>
    </personinfo>
</tripinfos>
