<?xml version="1.0" encoding="UTF-8"?>

<!-- generated on Tue Dec  3 16:33:43 2013 by SUMO sumo Version dev-SVN-r15233
<?xml version="1.0" encoding="UTF-8"?>

<configuration xmlns:xsi="http://www.w3.org/2001/XMLSchema-instance" xsi:noNamespaceSchemaLocation="http://sumo-sim.org/xsd/sumoConfiguration.xsd">

    <input>
        <net-file value="net.net.xml"/>
        <route-files value="input_routes.rou.xml"/>
        <additional-files value="input_additional.add.xml,input_additional2.add.xml"/>
    </input>

    <time>
        <begin value="0"/>
        <end value="1000"/>
    </time>

    <report>
        <no-duration-log value="true"/>
        <no-step-log value="true"/>
    </report>

</configuration>
-->

<meandata xmlns:xsi="http://www.w3.org/2001/XMLSchema-instance" xsi:noNamespaceSchemaLocation="http://sumo-sim.org/xsd/meandata_file.xsd">
    <interval begin="0.00" end="25.00" id="dump_25">
        <edge id="beg" sampledSeconds="41.77" traveltime="26.64" density="3.35" occupancy="1.01" waitingTime="0.00" speed="18.71" departed="3" arrived="0" entered="0" left="1" laneChangedFrom="0" laneChangedTo="0"/>
        <edge id="middle" sampledSeconds="0.00" traveltime="69.81" density="0.00" occupancy="0.00" waitingTime="0.00" speed="14.19" departed="0" arrived="0" entered="1" left="0" laneChangedFrom="0" laneChangedTo="0"/>
    </interval>
    <interval begin="25.00" end="50.00" id="dump_25">
        <edge id="beg" sampledSeconds="57.55" traveltime="23.27" density="4.62" occupancy="1.39" waitingTime="0.00" speed="21.43" departed="2" arrived="0" entered="0" left="2" laneChangedFrom="0" laneChangedTo="0"/>
        <edge id="middle" sampledSeconds="45.00" traveltime="71.26" density="1.82" occupancy="0.55" waitingTime="0.00" speed="13.90" departed="0" arrived="0" entered="2" left="0" laneChangedFrom="0" laneChangedTo="0"/>
    </interval>
    <interval begin="50.00" end="75.00" id="dump_25">
        <edge id="beg" sampledSeconds="61.32" traveltime="23.99" density="4.92" occupancy="1.48" waitingTime="0.00" speed="20.79" departed="3" arrived="0" entered="0" left="3" laneChangedFrom="0" laneChangedTo="0"/>
        <edge id="middle" sampledSeconds="105.00" traveltime="71.26" density="4.24" occupancy="1.27" waitingTime="0.00" speed="13.90" departed="0" arrived="0" entered="3" left="0" laneChangedFrom="0" laneChangedTo="0"/>
    </interval>
    <interval begin="75.00" end="100.00" id="dump_25">
        <edge id="beg" sampledSeconds="57.55" traveltime="23.27" density="4.62" occupancy="1.39" waitingTime="0.00" speed="21.43" departed="2" arrived="0" entered="0" left="2" laneChangedFrom="0" laneChangedTo="0"/>
        <edge id="end" sampledSeconds="1.89" traveltime="42.47" density="0.15" occupancy="0.05" waitingTime="0.00" speed="11.74" departed="0" arrived="0" entered="1" left="0" laneChangedFrom="0" laneChangedTo="0"/>
        <edge id="middle" sampledSeconds="167.73" traveltime="71.80" density="6.77" occupancy="2.03" waitingTime="0.00" speed="13.80" departed="0" arrived="0" entered="2" left="1" laneChangedFrom="0" laneChangedTo="0"/>
    </interval>
    <interval begin="100.00" end="125.00" id="dump_25">
        <edge id="beg" sampledSeconds="61.32" traveltime="23.99" density="4.92" occupancy="1.48" waitingTime="0.00" speed="20.79" departed="3" arrived="0" entered="0" left="3" laneChangedFrom="0" laneChangedTo="0"/>
        <edge id="end" sampledSeconds="42.29" traveltime="20.89" density="3.39" occupancy="1.02" waitingTime="0.00" speed="23.87" departed="0" arrived="0" entered="2" left="1" laneChangedFrom="0" laneChangedTo="0"/>
        <edge id="middle" sampledSeconds="180.46" traveltime="72.26" density="7.29" occupancy="2.19" waitingTime="0.00" speed="13.71" departed="0" arrived="0" entered="3" left="2" laneChangedFrom="0" laneChangedTo="0"/>
        <edge id="rend" sampledSeconds="6.60" traveltime="17.99" density="0.53" occupancy="0.16" waitingTime="0.00" speed="27.80" departed="0" arrived="0" entered="1" left="0" laneChangedFrom="0" laneChangedTo="0"/>
    </interval>
    <interval begin="125.00" end="150.00" id="dump_25">
        <edge id="beg" sampledSeconds="57.55" traveltime="23.27" density="4.62" occupancy="1.39" waitingTime="0.00" speed="21.43" departed="2" arrived="0" entered="0" left="2" laneChangedFrom="0" laneChangedTo="0"/>
        <edge id="end" sampledSeconds="51.20" traveltime="20.23" density="4.11" occupancy="1.23" waitingTime="0.00" speed="24.64" departed="0" arrived="0" entered="3" left="3" laneChangedFrom="0" laneChangedTo="0"/>
        <edge id="middle" sampledSeconds="183.19" traveltime="72.75" density="7.40" occupancy="2.22" waitingTime="0.00" speed="13.61" departed="0" arrived="0" entered="2" left="3" laneChangedFrom="0" laneChangedTo="0"/>
        <edge id="rend" sampledSeconds="42.78" traveltime="17.99" density="3.42" occupancy="1.03" waitingTime="0.00" speed="27.80" departed="0" arrived="2" entered="3" left="0" laneChangedFrom="0" laneChangedTo="0"/>
    </interval>
    <interval begin="150.00" end="175.00" id="dump_25">
        <edge id="beg" sampledSeconds="61.32" traveltime="23.99" density="4.92" occupancy="1.48" waitingTime="0.00" speed="20.79" departed="3" arrived="0" entered="0" left="3" laneChangedFrom="0" laneChangedTo="0"/>
        <edge id="end" sampledSeconds="50.80" traveltime="20.33" density="4.08" occupancy="1.22" waitingTime="0.00" speed="24.53" departed="0" arrived="0" entered="2" left="2" laneChangedFrom="0" laneChangedTo="0"/>
        <edge id="middle" sampledSeconds="180.46" traveltime="72.26" density="7.29" occupancy="2.19" waitingTime="0.00" speed="13.71" departed="0" arrived="0" entered="3" left="2" laneChangedFrom="0" laneChangedTo="0"/>
        <edge id="rend" sampledSeconds="46.19" traveltime="17.99" density="3.69" occupancy="1.11" waitingTime="0.00" speed="27.80" departed="0" arrived="2" entered="2" left="0" laneChangedFrom="0" laneChangedTo="0"/>
    </interval>
    <interval begin="175.00" end="200.00" id="dump_25">
        <edge id="beg" sampledSeconds="57.55" traveltime="23.27" density="4.62" occupancy="1.39" waitingTime="0.00" speed="21.43" departed="2" arrived="0" entered="0" left="2" laneChangedFrom="0" laneChangedTo="0"/>
        <edge id="end" sampledSeconds="51.20" traveltime="20.23" density="4.11" occupancy="1.23" waitingTime="0.00" speed="24.64" departed="0" arrived="0" entered="3" left="3" laneChangedFrom="0" laneChangedTo="0"/>
        <edge id="middle" sampledSeconds="183.19" traveltime="72.75" density="7.40" occupancy="2.22" waitingTime="0.00" speed="13.61" departed="0" arrived="0" entered="2" left="3" laneChangedFrom="0" laneChangedTo="0"/>
        <edge id="rend" sampledSeconds="44.28" traveltime="17.99" density="3.54" occupancy="1.06" waitingTime="0.00" speed="27.80" departed="0" arrived="3" entered="3" left="0" laneChangedFrom="0" laneChangedTo="0"/>
    </interval>
    <interval begin="200.00" end="225.00" id="dump_25">
        <edge id="beg" sampledSeconds="63.74" traveltime="25.06" density="5.11" occupancy="1.53" waitingTime="0.00" speed="19.90" departed="3" arrived="0" entered="0" left="2" laneChangedFrom="0" laneChangedTo="0"/>
        <edge id="end" sampledSeconds="27.01" traveltime="18.81" density="2.17" occupancy="0.65" waitingTime="0.00" speed="26.50" departed="0" arrived="0" entered="0" left="2" laneChangedFrom="0" laneChangedTo="0"/>
        <edge id="middle" sampledSeconds="201.39" traveltime="319.27" density="8.13" occupancy="2.44" waitingTime="0.00" speed="3.10" departed="0" arrived="0" entered="2" left="0" laneChangedFrom="0" laneChangedTo="0"/>
        <edge id="rend" sampledSeconds="46.19" traveltime="17.99" density="3.69" occupancy="1.11" waitingTime="0.00" speed="27.80" departed="0" arrived="2" entered="2" left="0" laneChangedFrom="0" laneChangedTo="0"/>
    </interval>
    <interval begin="225.00" end="250.00" id="dump_25">
        <edge id="beg" sampledSeconds="60.61" traveltime="24.38" density="4.86" occupancy="1.46" waitingTime="0.00" speed="20.45" departed="2" arrived="0" entered="0" left="3" laneChangedFrom="0" laneChangedTo="0"/>
        <edge id="end" sampledSeconds="20.91" traveltime="20.96" density="1.68" occupancy="0.50" waitingTime="0.00" speed="23.79" departed="0" arrived="0" entered="1" left="0" laneChangedFrom="0" laneChangedTo="0"/>
        <edge id="middle" sampledSeconds="243.13" traveltime="353.03" density="9.82" occupancy="2.95" waitingTime="0.00" speed="2.81" departed="0" arrived="0" entered="3" left="1" laneChangedFrom="0" laneChangedTo="0"/>
        <edge id="rend" sampledSeconds="12.99" traveltime="17.99" density="1.04" occupancy="0.31" waitingTime="0.00" speed="27.80" departed="0" arrived="2" entered="0" left="0" laneChangedFrom="0" laneChangedTo="0"/>
    </interval>
    <interval begin="250.00" end="275.00" id="dump_25">
        <edge id="beg" sampledSeconds="63.74" traveltime="25.06" density="5.11" occupancy="1.53" waitingTime="0.00" speed="19.90" departed="3" arrived="0" entered="0" left="2" laneChangedFrom="0" laneChangedTo="0"/>
        <edge id="end" sampledSeconds="0.15" traveltime="17.93" density="0.01" occupancy="0.00" waitingTime="0.00" speed="27.80" departed="0" arrived="0" entered="0" left="1" laneChangedFrom="0" laneChangedTo="0"/>
        <edge id="middle" sampledSeconds="301.39" traveltime="353.75" density="12.17" occupancy="3.65" waitingTime="0.00" speed="2.80" departed="0" arrived="0" entered="2" left="0" laneChangedFrom="0" laneChangedTo="0"/>
        <edge id="rend" sampledSeconds="18.09" traveltime="17.99" density="1.45" occupancy="0.43" waitingTime="0.00" speed="27.80" departed="0" arrived="1" entered="1" left="0" laneChangedFrom="0" laneChangedTo="0"/>
    </interval>
    <interval begin="275.00" end="300.00" id="dump_25">
        <edge id="beg" sampledSeconds="60.61" traveltime="24.38" density="4.86" occupancy="1.46" waitingTime="0.00" speed="20.45" departed="2" arrived="0" entered="0" left="3" laneChangedFrom="0" laneChangedTo="0"/>
        <edge id="end" sampledSeconds="21.06" traveltime="21.06" density="1.69" occupancy="0.51" waitingTime="0.00" speed="23.68" departed="0" arrived="0" entered="1" left="0" laneChangedFrom="0" laneChangedTo="0"/>
        <edge id="middle" sampledSeconds="342.94" traveltime="353.41" density="13.85" occupancy="4.15" waitingTime="0.00" speed="2.80" departed="0" arrived="0" entered="3" left="1" laneChangedFrom="0" laneChangedTo="0"/>
    </interval>
    <interval begin="300.00" end="325.00" id="dump_25">
        <edge id="beg" sampledSeconds="18.47" traveltime="18.68" density="1.48" occupancy="0.44" waitingTime="0.00" speed="26.69" departed="0" arrived="0" entered="0" left="2" laneChangedFrom="0" laneChangedTo="0"/>
        <edge id="end" sampledSeconds="34.74" traveltime="22.39" density="2.79" occupancy="0.84" waitingTime="0.00" speed="22.27" departed="0" arrived="0" entered="4" left="1" laneChangedFrom="0" laneChangedTo="0"/>
        <edge id="middle" sampledSeconds="370.32" traveltime="38.88" density="14.96" occupancy="4.49" waitingTime="0.00" speed="25.48" departed="0" arrived="0" entered="2" left="4" laneChangedFrom="0" laneChangedTo="0"/>
        <edge id="rend" sampledSeconds="17.99" traveltime="17.99" density="1.44" occupancy="0.43" waitingTime="0.00" speed="27.80" departed="0" arrived="1" entered="1" left="0" laneChangedFrom="0" laneChangedTo="0"/>
    </interval>
    <interval begin="325.00" end="350.00" id="dump_25">
        <edge id="end" sampledSeconds="184.08" traveltime="20.82" density="14.77" occupancy="4.43" waitingTime="0.00" speed="23.95" departed="0" arrived="0" entered="12" left="6" laneChangedFrom="0" laneChangedTo="0"/>
        <edge id="middle" sampledSeconds="176.83" traveltime="60.01" density="7.14" occupancy="2.14" waitingTime="0.00" speed="16.51" departed="0" arrived="0" entered="0" left="12" laneChangedFrom="0" laneChangedTo="0"/>
        <edge id="rend" sampledSeconds="56.30" traveltime="17.99" density="4.50" occupancy="1.35" waitingTime="0.00" speed="27.80" departed="0" arrived="1" entered="6" left="0" laneChangedFrom="0" laneChangedTo="0"/>
    </interval>
    <interval begin="350.00" end="375.00" id="dump_25">
        <edge id="end" sampledSeconds="125.72" traveltime="18.72" density="10.09" occupancy="3.03" waitingTime="0.00" speed="26.62" departed="0" arrived="0" entered="1" left="11" laneChangedFrom="0" laneChangedTo="0"/>
        <edge id="middle" sampledSeconds="0.72" traveltime="129.98" density="0.03" occupancy="0.01" waitingTime="0.00" speed="7.62" departed="0" arrived="0" entered="0" left="1" laneChangedFrom="0" laneChangedTo="0"/>
        <edge id="rend" sampledSeconds="191.01" traveltime="17.99" density="15.28" occupancy="4.58" waitingTime="0.00" speed="27.80" departed="0" arrived="8" entered="11" left="0" laneChangedFrom="0" laneChangedTo="0"/>
    </interval>
    <interval begin="375.00" end="400.00" id="dump_25">
        <edge id="rend" sampledSeconds="60.27" traveltime="17.99" density="4.82" occupancy="1.45" waitingTime="0.00" speed="27.80" departed="0" arrived="8" entered="0" left="0" laneChangedFrom="0" laneChangedTo="0"/>
    </interval>
    <interval begin="400.00" end="425.00" id="dump_25"/>
    <interval begin="425.00" end="450.00" id="dump_25"/>
    <interval begin="450.00" end="475.00" id="dump_25"/>
    <interval begin="475.00" end="500.00" id="dump_25"/>
    <interval begin="500.00" end="525.00" id="dump_25"/>
    <interval begin="525.00" end="550.00" id="dump_25"/>
    <interval begin="550.00" end="575.00" id="dump_25"/>
    <interval begin="575.00" end="600.00" id="dump_25"/>
    <interval begin="600.00" end="625.00" id="dump_25"/>
    <interval begin="625.00" end="650.00" id="dump_25"/>
    <interval begin="650.00" end="675.00" id="dump_25"/>
    <interval begin="675.00" end="700.00" id="dump_25"/>
    <interval begin="700.00" end="725.00" id="dump_25"/>
    <interval begin="725.00" end="750.00" id="dump_25"/>
    <interval begin="750.00" end="775.00" id="dump_25"/>
    <interval begin="775.00" end="800.00" id="dump_25"/>
    <interval begin="800.00" end="825.00" id="dump_25"/>
    <interval begin="825.00" end="850.00" id="dump_25"/>
    <interval begin="850.00" end="875.00" id="dump_25"/>
    <interval begin="875.00" end="900.00" id="dump_25"/>
    <interval begin="900.00" end="925.00" id="dump_25"/>
    <interval begin="925.00" end="950.00" id="dump_25"/>
    <interval begin="950.00" end="975.00" id="dump_25"/>
    <interval begin="975.00" end="1000.00" id="dump_25"/>
</meandata>
