<?xml version="1.0" encoding="UTF-8"?>

<!-- generated on Wed Mar 17 09:55:18 2021 by Eclipse SUMO sumo Version v1_8_0+1675-3a731ba
<configuration xmlns:xsi="http://www.w3.org/2001/XMLSchema-instance" xsi:noNamespaceSchemaLocation="http://sumo.dlr.de/xsd/sumoConfiguration.xsd">

    <input>
        <net-file value="input_net4.net.xml"/>
        <route-files value="input_routes.rou.xml"/>
        <additional-files value="input_additional4.add.xml"/>
    </input>

    <output>
        <vehroute-output value="vehroutes.xml"/>
    </output>

    <processing>
        <pedestrian.model value="nonInteracting"/>
    </processing>

    <report>
        <no-step-log value="true"/>
    </report>

    <traci_server>
        <remote-port value="49680"/>
    </traci_server>

    <mesoscopic>
        <mesosim value="true"/>
        <meso-junction-control value="true"/>
    </mesoscopic>

</configuration>
-->

<routes xmlns:xsi="http://www.w3.org/2001/XMLSchema-instance" xsi:noNamespaceSchemaLocation="http://sumo.dlr.de/xsd/routes_file.xsd">
    <vehicle id="ego" depart="0.00" arrival="128.00">
        <routeDistribution>
            <route replacedOnEdge="A0A1" reason="traci:replaceStop" replacedAtTime="5.00" probability="0" edges="A0A1 A1B1 B1C1 C1D1 D1D2 D2D3"/>
            <route replacedOnEdge="A0A1" reason="traci:replaceStop" replacedAtTime="5.00" probability="0" edges="A0A1 A1A2 A2B2 B2B1 B1C1 C1D1 D1D2 D2D3"/>
            <route replacedOnEdge="A0A1" reason="traci:replaceStop" replacedAtTime="5.00" probability="0" edges="A0A1 A1A2 A2B2 B2C2 C2C1 C1D1 D1D2 D2D3"/>
            <route edges="A0A1 A1A2 A2B2 B2C2 C2D2 D2D3"/>
        </routeDistribution>
        <stop busStop="busStop_A2B2" duration="30.00"/>
        <stop busStop="busStop_B2C2" duration="30.00"/>
        <stop busStop="busStop_C2D2" duration="30.00"/>
    </vehicle>

</routes>
