<?xml version="1.0" encoding="UTF-8"?>

<!-- generated on Thu Mar 12 08:40:58 2020 by Eclipse SUMO Version v1_5_0+0668-3019609
This data file and the accompanying materials
are made available under the terms of the Eclipse Public License v2.0
which accompanies this distribution, and is available at
http://www.eclipse.org/legal/epl-v20.html
SPDX-License-Identifier: EPL-2.0
<configuration xmlns:xsi="http://www.w3.org/2001/XMLSchema-instance" xsi:noNamespaceSchemaLocation="http://sumo.dlr.de/xsd/sumoConfiguration.xsd">

    <input>
        <net-file value="net.net.xml"/>
        <route-files value="input_routes.rou.xml"/>
        <additional-files value="input_additional.add.xml"/>
    </input>

    <output>
        <write-license value="true"/>
        <tripinfo-output value="tripinfos.xml"/>
    </output>

    <processing>
        <default.speeddev value="0"/>
    </processing>

    <report>
        <verbose value="true"/>
        <xml-validation value="never"/>
        <duration-log.statistics value="true"/>
        <no-step-log value="true"/>
    </report>

</configuration>
-->

<tripinfos xmlns:xsi="http://www.w3.org/2001/XMLSchema-instance" xsi:noNamespaceSchemaLocation="http://sumo.dlr.de/xsd/tripinfo_file.xsd">
    <tripinfo id="0.0" depart="0.00" departLane="a_0" departPos="5.10" departSpeed="0.00" departDelay="0.00" arrival="268.00" arrivalLane="f_0" arrivalPos="145.00" arrivalSpeed="13.70" duration="268.00" routeLength="494.90" waitingTime="15.00" waitingCount="1" stopTime="215.00" timeLoss="14.78" rerouteNo="0" devices="tripinfo_0.0 routing_0.0" vType="DEFAULT_VEHTYPE" speedFactor="1.00" vaporized=""/>
    <tripinfo id="0.1" depart="3.00" departLane="a_0" departPos="5.10" departSpeed="0.00" departDelay="-0.60" arrival="270.00" arrivalLane="f_0" arrivalPos="145.00" arrivalSpeed="13.60" duration="267.00" routeLength="494.90" waitingTime="17.00" waitingCount="1" stopTime="217.00" timeLoss="11.85" rerouteNo="0" devices="tripinfo_0.1 routing_0.1" vType="DEFAULT_VEHTYPE" speedFactor="1.00" vaporized=""/>
    <tripinfo id="0.3" depart="10.00" departLane="a_0" departPos="5.10" departSpeed="0.00" departDelay="-0.80" arrival="273.00" arrivalLane="f_0" arrivalPos="145.00" arrivalSpeed="13.58" duration="263.00" routeLength="494.90" waitingTime="9.00" waitingCount="1" stopTime="209.00" timeLoss="16.16" rerouteNo="0" devices="tripinfo_0.3 routing_0.3" vType="DEFAULT_VEHTYPE" speedFactor="1.00" vaporized=""/>
    <tripinfo id="0.2" depart="7.00" departLane="a_0" departPos="5.10" departSpeed="0.00" departDelay="-0.20" arrival="276.00" arrivalLane="f_0" arrivalPos="145.00" arrivalSpeed="13.80" duration="269.00" routeLength="494.90" waitingTime="18.00" waitingCount="1" stopTime="217.00" timeLoss="13.69" rerouteNo="0" devices="tripinfo_0.2 routing_0.2" vType="DEFAULT_VEHTYPE" speedFactor="1.00" vaporized=""/>
    <tripinfo id="0.4" depart="14.00" departLane="a_0" departPos="5.10" departSpeed="0.00" departDelay="-0.40" arrival="278.00" arrivalLane="f_0" arrivalPos="145.00" arrivalSpeed="13.69" duration="264.00" routeLength="494.90" waitingTime="9.00" waitingCount="1" stopTime="209.00" timeLoss="17.35" rerouteNo="0" devices="tripinfo_0.4 routing_0.4" vType="DEFAULT_VEHTYPE" speedFactor="1.00" vaporized=""/>
    <tripinfo id="0.5" depart="18.00" departLane="a_0" departPos="5.10" departSpeed="0.00" departDelay="0.00" arrival="283.00" arrivalLane="f_0" arrivalPos="145.00" arrivalSpeed="13.75" duration="265.00" routeLength="494.90" waitingTime="7.00" waitingCount="1" stopTime="206.00" timeLoss="20.67" rerouteNo="0" devices="tripinfo_0.5 routing_0.5" vType="DEFAULT_VEHTYPE" speedFactor="1.00" vaporized=""/>
    <tripinfo id="0.6" depart="21.00" departLane="a_0" departPos="5.10" departSpeed="0.00" departDelay="-0.60" arrival="356.00" arrivalLane="f_0" arrivalPos="145.00" arrivalSpeed="12.89" duration="335.00" routeLength="675.74" waitingTime="21.00" waitingCount="4" stopTime="200.00" timeLoss="74.72" rerouteNo="1" devices="tripinfo_0.6 routing_0.6" vType="DEFAULT_VEHTYPE" speedFactor="1.00" vaporized=""/>
    <tripinfo id="0.7" depart="25.00" departLane="a_0" departPos="5.10" departSpeed="0.00" departDelay="-0.20" arrival="359.00" arrivalLane="f_0" arrivalPos="145.00" arrivalSpeed="13.15" duration="334.00" routeLength="675.74" waitingTime="19.00" waitingCount="5" stopTime="200.00" timeLoss="72.65" rerouteNo="1" devices="tripinfo_0.7 routing_0.7" vType="DEFAULT_VEHTYPE" speedFactor="1.00" vaporized=""/>
    <tripinfo id="0.8" depart="28.00" departLane="a_0" departPos="5.10" departSpeed="0.00" departDelay="-0.80" arrival="361.00" arrivalLane="f_0" arrivalPos="145.00" arrivalSpeed="13.11" duration="333.00" routeLength="675.74" waitingTime="17.00" waitingCount="4" stopTime="200.00" timeLoss="72.09" rerouteNo="1" devices="tripinfo_0.8 routing_0.8" vType="DEFAULT_VEHTYPE" speedFactor="1.00" vaporized=""/>
    <tripinfo id="0.9" depart="32.00" departLane="a_0" departPos="5.10" departSpeed="0.00" departDelay="-0.40" arrival="363.00" arrivalLane="f_0" arrivalPos="145.00" arrivalSpeed="13.63" duration="331.00" routeLength="675.74" waitingTime="14.00" waitingCount="5" stopTime="200.00" timeLoss="70.32" rerouteNo="1" devices="tripinfo_0.9 routing_0.9" vType="DEFAULT_VEHTYPE" speedFactor="1.00" vaporized=""/>
    <tripinfo id="0.10" depart="36.00" departLane="a_0" departPos="5.10" departSpeed="0.00" departDelay="0.00" arrival="366.00" arrivalLane="f_0" arrivalPos="145.00" arrivalSpeed="13.33" duration="330.00" routeLength="675.74" waitingTime="17.00" waitingCount="3" stopTime="207.00" timeLoss="61.48" rerouteNo="1" devices="tripinfo_0.10 routing_0.10" vType="DEFAULT_VEHTYPE" speedFactor="1.00" vaporized=""/>
    <tripinfo id="0.11" depart="39.00" departLane="a_0" departPos="5.10" departSpeed="0.00" departDelay="-0.60" arrival="368.00" arrivalLane="f_0" arrivalPos="145.00" arrivalSpeed="13.14" duration="329.00" routeLength="675.74" waitingTime="16.00" waitingCount="3" stopTime="206.00" timeLoss="62.33" rerouteNo="1" devices="tripinfo_0.11 routing_0.11" vType="DEFAULT_VEHTYPE" speedFactor="1.00" vaporized=""/>
    <tripinfo id="0.12" depart="43.00" departLane="a_0" departPos="5.10" departSpeed="0.00" departDelay="-0.20" arrival="371.00" arrivalLane="f_0" arrivalPos="145.00" arrivalSpeed="13.44" duration="328.00" routeLength="675.74" waitingTime="19.00" waitingCount="2" stopTime="200.00" timeLoss="67.02" rerouteNo="2" devices="tripinfo_0.12 routing_0.12" vType="DEFAULT_VEHTYPE" speedFactor="1.00" vaporized=""/>
    <tripinfo id="0.13" depart="46.00" departLane="a_0" departPos="5.10" departSpeed="0.00" departDelay="-0.80" arrival="373.00" arrivalLane="f_0" arrivalPos="145.00" arrivalSpeed="13.14" duration="327.00" routeLength="675.74" waitingTime="17.00" waitingCount="2" stopTime="200.00" timeLoss="65.58" rerouteNo="2" devices="tripinfo_0.13 routing_0.13" vType="DEFAULT_VEHTYPE" speedFactor="1.00" vaporized=""/>
    <tripinfo id="0.14" depart="50.00" departLane="a_0" departPos="5.10" departSpeed="0.00" departDelay="-0.40" arrival="376.00" arrivalLane="f_0" arrivalPos="145.00" arrivalSpeed="12.60" duration="326.00" routeLength="675.74" waitingTime="15.00" waitingCount="2" stopTime="200.00" timeLoss="64.74" rerouteNo="2" devices="tripinfo_0.14 routing_0.14" vType="DEFAULT_VEHTYPE" speedFactor="1.00" vaporized=""/>
    <tripinfo id="0.15" depart="54.00" departLane="a_0" departPos="5.10" departSpeed="0.00" departDelay="0.00" arrival="378.00" arrivalLane="f_0" arrivalPos="145.00" arrivalSpeed="13.79" duration="324.00" routeLength="675.74" waitingTime="15.00" waitingCount="2" stopTime="200.00" timeLoss="63.06" rerouteNo="2" devices="tripinfo_0.15 routing_0.15" vType="DEFAULT_VEHTYPE" speedFactor="1.00" vaporized=""/>
    <tripinfo id="0.16" depart="57.00" departLane="a_0" departPos="5.10" departSpeed="0.00" departDelay="-0.60" arrival="382.00" arrivalLane="f_0" arrivalPos="145.00" arrivalSpeed="13.84" duration="325.00" routeLength="675.74" waitingTime="19.00" waitingCount="2" stopTime="210.00" timeLoss="53.91" rerouteNo="2" devices="tripinfo_0.16 routing_0.16" vType="DEFAULT_VEHTYPE" speedFactor="1.00" vaporized=""/>
    <tripinfo id="0.17" depart="61.00" departLane="a_0" departPos="5.10" departSpeed="0.00" departDelay="-0.20" arrival="385.00" arrivalLane="f_0" arrivalPos="145.00" arrivalSpeed="13.87" duration="324.00" routeLength="675.74" waitingTime="18.00" waitingCount="2" stopTime="210.00" timeLoss="53.21" rerouteNo="2" devices="tripinfo_0.17 routing_0.17" vType="DEFAULT_VEHTYPE" speedFactor="1.00" vaporized=""/>
    <tripinfo id="0.18" depart="64.00" departLane="a_0" departPos="5.10" departSpeed="0.00" departDelay="-0.80" arrival="389.00" arrivalLane="f_0" arrivalPos="145.00" arrivalSpeed="13.23" duration="325.00" routeLength="675.74" waitingTime="21.00" waitingCount="3" stopTime="201.00" timeLoss="62.79" rerouteNo="3" devices="tripinfo_0.18 routing_0.18" vType="DEFAULT_VEHTYPE" speedFactor="1.00" vaporized=""/>
    <tripinfo id="0.19" depart="68.00" departLane="a_0" departPos="5.10" departSpeed="0.00" departDelay="-0.40" arrival="393.00" arrivalLane="f_0" arrivalPos="145.00" arrivalSpeed="13.03" duration="325.00" routeLength="675.74" waitingTime="22.00" waitingCount="2" stopTime="200.00" timeLoss="64.86" rerouteNo="3" devices="tripinfo_0.19 routing_0.19" vType="DEFAULT_VEHTYPE" speedFactor="1.00" vaporized=""/>
    <tripinfo id="0.20" depart="72.00" departLane="a_0" departPos="5.10" departSpeed="0.00" departDelay="0.00" arrival="397.00" arrivalLane="f_0" arrivalPos="145.00" arrivalSpeed="13.10" duration="325.00" routeLength="675.74" waitingTime="21.00" waitingCount="2" stopTime="200.00" timeLoss="64.46" rerouteNo="3" devices="tripinfo_0.20 routing_0.20" vType="DEFAULT_VEHTYPE" speedFactor="1.00" vaporized=""/>
    <tripinfo id="0.21" depart="75.00" departLane="a_0" departPos="5.10" departSpeed="0.00" departDelay="-0.60" arrival="402.00" arrivalLane="f_0" arrivalPos="145.00" arrivalSpeed="12.60" duration="327.00" routeLength="675.74" waitingTime="19.00" waitingCount="3" stopTime="200.00" timeLoss="66.75" rerouteNo="3" devices="tripinfo_0.21 routing_0.21" vType="DEFAULT_VEHTYPE" speedFactor="1.00" vaporized=""/>
    <tripinfo id="0.22" depart="79.00" departLane="a_0" departPos="5.10" departSpeed="0.00" departDelay="-0.20" arrival="408.00" arrivalLane="f_0" arrivalPos="145.00" arrivalSpeed="12.95" duration="329.00" routeLength="675.74" waitingTime="17.00" waitingCount="2" stopTime="200.00" timeLoss="67.52" rerouteNo="3" devices="tripinfo_0.22 routing_0.22" vType="DEFAULT_VEHTYPE" speedFactor="1.00" vaporized=""/>
    <tripinfo id="0.23" depart="82.00" departLane="a_0" departPos="5.10" departSpeed="0.00" departDelay="-0.80" arrival="416.00" arrivalLane="f_0" arrivalPos="145.00" arrivalSpeed="13.27" duration="334.00" routeLength="675.74" waitingTime="18.00" waitingCount="3" stopTime="200.00" timeLoss="73.18" rerouteNo="3" devices="tripinfo_0.23 routing_0.23" vType="DEFAULT_VEHTYPE" speedFactor="1.00" vaporized=""/>
    <tripinfo id="0.31" depart="111.00" departLane="a_0" departPos="5.10" departSpeed="0.00" departDelay="-0.60" arrival="471.00" arrivalLane="f_0" arrivalPos="145.00" arrivalSpeed="12.61" duration="360.00" routeLength="675.74" waitingTime="22.00" waitingCount="4" stopTime="202.00" timeLoss="97.47" rerouteNo="5" devices="tripinfo_0.31 routing_0.31" vType="DEFAULT_VEHTYPE" speedFactor="1.00" vaporized=""/>
    <tripinfo id="0.32" depart="115.00" departLane="a_0" departPos="5.10" departSpeed="0.00" departDelay="-0.20" arrival="474.00" arrivalLane="f_0" arrivalPos="145.00" arrivalSpeed="13.81" duration="359.00" routeLength="675.74" waitingTime="18.00" waitingCount="3" stopTime="200.00" timeLoss="98.45" rerouteNo="4" devices="tripinfo_0.32 routing_0.32" vType="DEFAULT_VEHTYPE" speedFactor="1.00" vaporized=""/>
    <tripinfo id="0.33" depart="118.00" departLane="a_0" departPos="5.10" departSpeed="0.00" departDelay="-0.80" arrival="482.00" arrivalLane="f_0" arrivalPos="145.00" arrivalSpeed="12.64" duration="364.00" routeLength="675.74" waitingTime="16.00" waitingCount="3" stopTime="200.00" timeLoss="102.68" rerouteNo="4" devices="tripinfo_0.33 routing_0.33" vType="DEFAULT_VEHTYPE" speedFactor="1.00" vaporized=""/>
    <tripinfo id="0.34" depart="122.00" departLane="a_0" departPos="5.10" departSpeed="0.00" departDelay="-0.40" arrival="487.00" arrivalLane="f_0" arrivalPos="145.00" arrivalSpeed="12.68" duration="365.00" routeLength="675.74" waitingTime="14.00" waitingCount="3" stopTime="200.00" timeLoss="103.82" rerouteNo="4" devices="tripinfo_0.34 routing_0.34" vType="DEFAULT_VEHTYPE" speedFactor="1.00" vaporized=""/>
    <tripinfo id="0.35" depart="126.00" departLane="a_0" departPos="5.10" departSpeed="0.00" departDelay="0.00" arrival="494.00" arrivalLane="f_0" arrivalPos="145.00" arrivalSpeed="13.41" duration="368.00" routeLength="675.74" waitingTime="11.00" waitingCount="3" stopTime="200.00" timeLoss="107.13" rerouteNo="4" devices="tripinfo_0.35 routing_0.35" vType="DEFAULT_VEHTYPE" speedFactor="1.00" vaporized=""/>
    <tripinfo id="0.36" depart="129.00" departLane="a_0" departPos="5.10" departSpeed="0.00" departDelay="-0.60" arrival="499.00" arrivalLane="f_0" arrivalPos="145.00" arrivalSpeed="13.20" duration="370.00" routeLength="675.74" waitingTime="12.00" waitingCount="4" stopTime="200.00" timeLoss="109.04" rerouteNo="4" devices="tripinfo_0.36 routing_0.36" vType="DEFAULT_VEHTYPE" speedFactor="1.00" vaporized=""/>
    <tripinfo id="0.37" depart="133.00" departLane="a_0" departPos="5.10" departSpeed="0.00" departDelay="-0.20" arrival="536.00" arrivalLane="f_0" arrivalPos="145.00" arrivalSpeed="13.65" duration="403.00" routeLength="856.58" waitingTime="18.00" waitingCount="4" stopTime="200.00" timeLoss="118.65" rerouteNo="5" devices="tripinfo_0.37 routing_0.37" vType="DEFAULT_VEHTYPE" speedFactor="1.00" vaporized=""/>
    <tripinfo id="0.38" depart="136.00" departLane="a_0" departPos="5.10" departSpeed="0.00" departDelay="-0.80" arrival="541.00" arrivalLane="f_0" arrivalPos="145.00" arrivalSpeed="12.77" duration="405.00" routeLength="856.58" waitingTime="20.00" waitingCount="5" stopTime="200.00" timeLoss="121.20" rerouteNo="5" devices="tripinfo_0.38 routing_0.38" vType="DEFAULT_VEHTYPE" speedFactor="1.00" vaporized=""/>
    <tripinfo id="0.39" depart="140.00" departLane="a_0" departPos="5.10" departSpeed="0.00" departDelay="-0.40" arrival="546.00" arrivalLane="f_0" arrivalPos="145.00" arrivalSpeed="13.04" duration="406.00" routeLength="856.58" waitingTime="16.00" waitingCount="4" stopTime="200.00" timeLoss="121.67" rerouteNo="5" devices="tripinfo_0.39 routing_0.39" vType="DEFAULT_VEHTYPE" speedFactor="1.00" vaporized=""/>
    <tripinfo id="0.40" depart="144.00" departLane="a_0" departPos="5.10" departSpeed="0.00" departDelay="0.00" arrival="552.00" arrivalLane="f_0" arrivalPos="145.00" arrivalSpeed="12.97" duration="408.00" routeLength="856.58" waitingTime="14.00" waitingCount="3" stopTime="200.00" timeLoss="123.94" rerouteNo="5" devices="tripinfo_0.40 routing_0.40" vType="DEFAULT_VEHTYPE" speedFactor="1.00" vaporized=""/>
    <tripinfo id="0.24" depart="86.00" departLane="a_0" departPos="5.10" departSpeed="0.00" departDelay="-0.40" arrival="557.00" arrivalLane="f_0" arrivalPos="145.00" arrivalSpeed="13.12" duration="471.00" routeLength="1037.42" waitingTime="30.00" waitingCount="5" stopTime="200.00" timeLoss="163.99" rerouteNo="9" devices="tripinfo_0.24 routing_0.24" vType="DEFAULT_VEHTYPE" speedFactor="1.00" vaporized=""/>
    <tripinfo id="0.25" depart="90.00" departLane="a_0" departPos="5.10" departSpeed="0.00" departDelay="0.00" arrival="563.00" arrivalLane="f_0" arrivalPos="145.00" arrivalSpeed="13.64" duration="473.00" routeLength="1037.42" waitingTime="27.00" waitingCount="6" stopTime="200.00" timeLoss="166.70" rerouteNo="9" devices="tripinfo_0.25 routing_0.25" vType="DEFAULT_VEHTYPE" speedFactor="1.00" vaporized=""/>
    <tripinfo id="0.26" depart="93.00" departLane="a_0" departPos="5.10" departSpeed="0.00" departDelay="-0.60" arrival="574.00" arrivalLane="f_0" arrivalPos="145.00" arrivalSpeed="13.38" duration="481.00" routeLength="1037.42" waitingTime="34.00" waitingCount="6" stopTime="200.00" timeLoss="174.29" rerouteNo="10" devices="tripinfo_0.26 routing_0.26" vType="DEFAULT_VEHTYPE" speedFactor="1.00" vaporized=""/>
    <tripinfo id="0.27" depart="97.00" departLane="a_0" departPos="5.10" departSpeed="0.00" departDelay="-0.20" arrival="578.00" arrivalLane="f_0" arrivalPos="145.00" arrivalSpeed="12.66" duration="481.00" routeLength="1037.42" waitingTime="32.00" waitingCount="6" stopTime="200.00" timeLoss="174.78" rerouteNo="10" devices="tripinfo_0.27 routing_0.27" vType="DEFAULT_VEHTYPE" speedFactor="1.00" vaporized=""/>
    <tripinfo id="0.28" depart="100.00" departLane="a_0" departPos="5.10" departSpeed="0.00" departDelay="-0.80" arrival="584.00" arrivalLane="f_0" arrivalPos="145.00" arrivalSpeed="13.72" duration="484.00" routeLength="1037.42" waitingTime="28.00" waitingCount="5" stopTime="200.00" timeLoss="177.15" rerouteNo="10" devices="tripinfo_0.28 routing_0.28" vType="DEFAULT_VEHTYPE" speedFactor="1.00" vaporized=""/>
    <tripinfo id="0.29" depart="104.00" departLane="a_0" departPos="5.10" departSpeed="0.00" departDelay="-0.40" arrival="589.00" arrivalLane="f_0" arrivalPos="145.00" arrivalSpeed="13.51" duration="485.00" routeLength="1037.42" waitingTime="24.00" waitingCount="5" stopTime="200.00" timeLoss="178.48" rerouteNo="10" devices="tripinfo_0.29 routing_0.29" vType="DEFAULT_VEHTYPE" speedFactor="1.00" vaporized=""/>
    <tripinfo id="0.41" depart="147.00" departLane="a_0" departPos="5.10" departSpeed="0.00" departDelay="-0.60" arrival="597.00" arrivalLane="f_0" arrivalPos="145.00" arrivalSpeed="13.20" duration="450.00" routeLength="675.74" waitingTime="121.00" waitingCount="3" stopTime="200.00" timeLoss="188.85" rerouteNo="2" devices="tripinfo_0.41 routing_0.41" vType="DEFAULT_VEHTYPE" speedFactor="1.00" vaporized=""/>
    <tripinfo id="0.30" depart="108.00" departLane="a_0" departPos="5.10" departSpeed="0.00" departDelay="0.00" arrival="601.00" arrivalLane="f_0" arrivalPos="145.00" arrivalSpeed="13.39" duration="493.00" routeLength="1037.42" waitingTime="27.00" waitingCount="7" stopTime="200.00" timeLoss="184.92" rerouteNo="10" devices="tripinfo_0.30 routing_0.30" vType="DEFAULT_VEHTYPE" speedFactor="1.00" vaporized=""/>
    <tripinfo id="0.42" depart="151.00" departLane="a_0" departPos="5.10" departSpeed="0.00" departDelay="-0.20" arrival="631.00" arrivalLane="f_0" arrivalPos="145.00" arrivalSpeed="13.32" duration="480.00" routeLength="675.74" waitingTime="173.00" waitingCount="4" stopTime="200.00" timeLoss="220.04" rerouteNo="3" devices="tripinfo_0.42 routing_0.42" vType="DEFAULT_VEHTYPE" speedFactor="1.00" vaporized=""/>
    <tripinfo id="0.43" depart="154.00" departLane="a_0" departPos="5.10" departSpeed="0.00" departDelay="-0.80" arrival="635.00" arrivalLane="f_0" arrivalPos="145.00" arrivalSpeed="12.99" duration="481.00" routeLength="675.74" waitingTime="169.00" waitingCount="4" stopTime="200.00" timeLoss="220.33" rerouteNo="3" devices="tripinfo_0.43 routing_0.43" vType="DEFAULT_VEHTYPE" speedFactor="1.00" vaporized=""/>
    <tripinfo id="0.44" depart="158.00" departLane="a_0" departPos="5.10" departSpeed="0.00" departDelay="-0.40" arrival="643.00" arrivalLane="f_0" arrivalPos="145.00" arrivalSpeed="12.89" duration="485.00" routeLength="675.74" waitingTime="165.00" waitingCount="2" stopTime="200.00" timeLoss="224.36" rerouteNo="3" devices="tripinfo_0.44 routing_0.44" vType="DEFAULT_VEHTYPE" speedFactor="1.00" vaporized=""/>
    <tripinfo id="0.45" depart="162.00" departLane="a_0" departPos="5.10" departSpeed="0.00" departDelay="0.00" arrival="647.00" arrivalLane="f_0" arrivalPos="145.00" arrivalSpeed="13.37" duration="485.00" routeLength="675.74" waitingTime="164.00" waitingCount="2" stopTime="200.00" timeLoss="224.47" rerouteNo="3" devices="tripinfo_0.45 routing_0.45" vType="DEFAULT_VEHTYPE" speedFactor="1.00" vaporized=""/>
    <tripinfo id="0.46" depart="165.00" departLane="a_0" departPos="5.10" departSpeed="0.00" departDelay="-0.60" arrival="652.00" arrivalLane="f_0" arrivalPos="145.00" arrivalSpeed="12.95" duration="487.00" routeLength="675.74" waitingTime="164.00" waitingCount="2" stopTime="200.00" timeLoss="226.43" rerouteNo="3" devices="tripinfo_0.46 routing_0.46" vType="DEFAULT_VEHTYPE" speedFactor="1.00" vaporized=""/>
    <tripinfo id="0.47" depart="169.00" departLane="a_0" departPos="5.10" departSpeed="0.00" departDelay="-0.20" arrival="658.00" arrivalLane="f_0" arrivalPos="145.00" arrivalSpeed="12.95" duration="489.00" routeLength="675.74" waitingTime="165.00" waitingCount="3" stopTime="200.00" timeLoss="227.83" rerouteNo="3" devices="tripinfo_0.47 routing_0.47" vType="DEFAULT_VEHTYPE" speedFactor="1.00" vaporized=""/>
    <tripinfo id="0.48" depart="172.00" departLane="a_0" departPos="5.10" departSpeed="0.00" departDelay="-0.80" arrival="695.00" arrivalLane="f_0" arrivalPos="145.00" arrivalSpeed="13.45" duration="523.00" routeLength="856.58" waitingTime="173.00" waitingCount="3" stopTime="200.00" timeLoss="239.88" rerouteNo="8" devices="tripinfo_0.48 routing_0.48" vType="DEFAULT_VEHTYPE" speedFactor="1.00" vaporized=""/>
    <tripinfo id="0.49" depart="176.00" departLane="a_0" departPos="5.10" departSpeed="0.00" departDelay="-0.40" arrival="701.00" arrivalLane="f_0" arrivalPos="145.00" arrivalSpeed="13.15" duration="525.00" routeLength="856.58" waitingTime="169.00" waitingCount="3" stopTime="200.00" timeLoss="241.37" rerouteNo="8" devices="tripinfo_0.49 routing_0.49" vType="DEFAULT_VEHTYPE" speedFactor="1.00" vaporized=""/>
</tripinfos>
