<?xml version="1.0" encoding="UTF-8"?>

<!-- generated on 2022-02-09 17:48:57 by Eclipse SUMO sumo Version v1_12_0+0407-89d3a2c
This data file and the accompanying materials
are made available under the terms of the Eclipse Public License v2.0
which accompanies this distribution, and is available at
http://www.eclipse.org/legal/epl-v20.html
This file may also be made available under the following Secondary
Licenses when the conditions for such availability set forth in the Eclipse
Public License 2.0 are satisfied: GNU General Public License, version 2
or later which is available at
https://www.gnu.org/licenses/old-licenses/gpl-2.0-standalone.html
SPDX-License-Identifier: EPL-2.0 OR GPL-2.0-or-later
<configuration xmlns:xsi="http://www.w3.org/2001/XMLSchema-instance" xsi:noNamespaceSchemaLocation="http://sumo.dlr.de/xsd/sumoConfiguration.xsd">

    <input>
        <net-file value="net.net.xml"/>
        <route-files value="input_routes.rou.xml"/>
        <additional-files value="input_additional.add.xml"/>
    </input>

    <output>
        <write-license value="true"/>
        <tripinfo-output value="tripinfos.xml"/>
    </output>

    <processing>
        <default.speeddev value="0"/>
    </processing>

    <report>
        <verbose value="true"/>
        <xml-validation value="never"/>
        <xml-validation.routes value="never"/>
        <duration-log.statistics value="true"/>
        <no-step-log value="true"/>
    </report>

</configuration>
-->

<tripinfos xmlns:xsi="http://www.w3.org/2001/XMLSchema-instance" xsi:noNamespaceSchemaLocation="http://sumo.dlr.de/xsd/tripinfo_file.xsd">
    <tripinfo id="0.0" depart="0.00" departLane="a_0" departPos="5.10" departSpeed="0.00" departDelay="0.00" arrival="267.00" arrivalLane="f_0" arrivalPos="145.00" arrivalSpeed="12.76" duration="267.00" routeLength="494.90" waitingTime="15.00" waitingCount="1" stopTime="214.00" timeLoss="15.19" rerouteNo="0" devices="tripinfo_0.0 routing_0.0" vType="DEFAULT_VEHTYPE" speedFactor="1.00" vaporized=""/>
    <tripinfo id="0.1" depart="4.00" departLane="a_0" departPos="5.10" departSpeed="0.00" departDelay="0.40" arrival="269.00" arrivalLane="f_0" arrivalPos="145.00" arrivalSpeed="13.43" duration="265.00" routeLength="494.90" waitingTime="14.00" waitingCount="1" stopTime="214.00" timeLoss="13.14" rerouteNo="0" devices="tripinfo_0.1 routing_0.1" vType="DEFAULT_VEHTYPE" speedFactor="1.00" vaporized=""/>
    <tripinfo id="0.6" depart="22.00" departLane="a_0" departPos="5.10" departSpeed="0.00" departDelay="0.40" arrival="274.00" arrivalLane="f_0" arrivalPos="145.00" arrivalSpeed="13.69" duration="252.00" routeLength="494.90" waitingTime="6.00" waitingCount="1" stopTime="205.00" timeLoss="11.63" rerouteNo="0" devices="tripinfo_0.6 routing_0.6" vType="DEFAULT_VEHTYPE" speedFactor="1.00" vaporized=""/>
    <tripinfo id="0.2" depart="8.00" departLane="a_0" departPos="5.10" departSpeed="0.00" departDelay="0.80" arrival="276.00" arrivalLane="f_0" arrivalPos="145.00" arrivalSpeed="13.42" duration="268.00" routeLength="494.90" waitingTime="15.00" waitingCount="1" stopTime="215.00" timeLoss="14.77" rerouteNo="0" devices="tripinfo_0.2 routing_0.2" vType="DEFAULT_VEHTYPE" speedFactor="1.00" vaporized=""/>
    <tripinfo id="0.3" depart="11.00" departLane="a_0" departPos="5.10" departSpeed="0.00" departDelay="0.20" arrival="279.00" arrivalLane="f_0" arrivalPos="145.00" arrivalSpeed="13.04" duration="268.00" routeLength="494.90" waitingTime="17.00" waitingCount="1" stopTime="217.00" timeLoss="12.56" rerouteNo="0" devices="tripinfo_0.3 routing_0.3" vType="DEFAULT_VEHTYPE" speedFactor="1.00" vaporized=""/>
    <tripinfo id="0.4" depart="15.00" departLane="a_0" departPos="5.10" departSpeed="0.00" departDelay="0.60" arrival="285.00" arrivalLane="f_0" arrivalPos="145.00" arrivalSpeed="13.75" duration="270.00" routeLength="494.90" waitingTime="17.00" waitingCount="1" stopTime="217.00" timeLoss="14.87" rerouteNo="0" devices="tripinfo_0.4 routing_0.4" vType="DEFAULT_VEHTYPE" speedFactor="1.00" vaporized=""/>
    <tripinfo id="0.5" depart="18.00" departLane="a_0" departPos="5.10" departSpeed="0.00" departDelay="0.00" arrival="354.00" arrivalLane="f_0" arrivalPos="145.00" arrivalSpeed="13.81" duration="336.00" routeLength="675.74" waitingTime="16.00" waitingCount="3" stopTime="200.00" timeLoss="74.87" rerouteNo="1" devices="tripinfo_0.5 routing_0.5" vType="DEFAULT_VEHTYPE" speedFactor="1.00" vaporized=""/>
    <tripinfo id="0.7" depart="26.00" departLane="a_0" departPos="5.10" departSpeed="0.00" departDelay="0.80" arrival="356.00" arrivalLane="f_0" arrivalPos="145.00" arrivalSpeed="13.86" duration="330.00" routeLength="675.74" waitingTime="19.00" waitingCount="3" stopTime="203.00" timeLoss="66.06" rerouteNo="1" devices="tripinfo_0.7 routing_0.7" vType="DEFAULT_VEHTYPE" speedFactor="1.00" vaporized=""/>
    <tripinfo id="0.8" depart="29.00" departLane="a_0" departPos="5.10" departSpeed="0.00" departDelay="0.20" arrival="358.00" arrivalLane="f_0" arrivalPos="145.00" arrivalSpeed="12.84" duration="329.00" routeLength="675.74" waitingTime="18.00" waitingCount="3" stopTime="203.00" timeLoss="65.82" rerouteNo="1" devices="tripinfo_0.8 routing_0.8" vType="DEFAULT_VEHTYPE" speedFactor="1.00" vaporized=""/>
    <tripinfo id="0.9" depart="33.00" departLane="a_0" departPos="5.10" departSpeed="0.00" departDelay="0.60" arrival="361.00" arrivalLane="f_0" arrivalPos="145.00" arrivalSpeed="13.34" duration="328.00" routeLength="675.74" waitingTime="16.00" waitingCount="4" stopTime="203.00" timeLoss="63.75" rerouteNo="1" devices="tripinfo_0.9 routing_0.9" vType="DEFAULT_VEHTYPE" speedFactor="1.00" vaporized=""/>
    <tripinfo id="0.10" depart="36.00" departLane="a_0" departPos="5.10" departSpeed="0.00" departDelay="0.00" arrival="363.00" arrivalLane="f_0" arrivalPos="145.00" arrivalSpeed="13.85" duration="327.00" routeLength="675.74" waitingTime="26.00" waitingCount="2" stopTime="220.00" timeLoss="46.72" rerouteNo="1" devices="tripinfo_0.10 routing_0.10" vType="DEFAULT_VEHTYPE" speedFactor="1.00" vaporized=""/>
    <tripinfo id="0.11" depart="40.00" departLane="a_0" departPos="5.10" departSpeed="0.00" departDelay="0.40" arrival="366.00" arrivalLane="f_0" arrivalPos="145.00" arrivalSpeed="13.14" duration="326.00" routeLength="675.74" waitingTime="24.00" waitingCount="3" stopTime="218.00" timeLoss="47.01" rerouteNo="1" devices="tripinfo_0.11 routing_0.11" vType="DEFAULT_VEHTYPE" speedFactor="1.00" vaporized=""/>
    <tripinfo id="0.12" depart="44.00" departLane="a_0" departPos="5.10" departSpeed="0.00" departDelay="0.80" arrival="368.00" arrivalLane="f_0" arrivalPos="145.00" arrivalSpeed="12.84" duration="324.00" routeLength="675.74" waitingTime="30.00" waitingCount="4" stopTime="214.00" timeLoss="48.68" rerouteNo="2" devices="tripinfo_0.12 routing_0.12" vType="DEFAULT_VEHTYPE" speedFactor="1.00" vaporized=""/>
    <tripinfo id="0.13" depart="47.00" departLane="a_0" departPos="5.10" departSpeed="0.00" departDelay="0.20" arrival="370.00" arrivalLane="f_0" arrivalPos="145.00" arrivalSpeed="13.18" duration="323.00" routeLength="675.74" waitingTime="28.00" waitingCount="3" stopTime="213.00" timeLoss="49.82" rerouteNo="2" devices="tripinfo_0.13 routing_0.13" vType="DEFAULT_VEHTYPE" speedFactor="1.00" vaporized=""/>
    <tripinfo id="0.14" depart="51.00" departLane="a_0" departPos="5.10" departSpeed="0.00" departDelay="0.60" arrival="373.00" arrivalLane="f_0" arrivalPos="145.00" arrivalSpeed="12.89" duration="322.00" routeLength="675.74" waitingTime="25.00" waitingCount="3" stopTime="211.00" timeLoss="50.73" rerouteNo="2" devices="tripinfo_0.14 routing_0.14" vType="DEFAULT_VEHTYPE" speedFactor="1.00" vaporized=""/>
    <tripinfo id="0.15" depart="54.00" departLane="a_0" departPos="5.10" departSpeed="0.00" departDelay="0.00" arrival="376.00" arrivalLane="f_0" arrivalPos="145.00" arrivalSpeed="13.10" duration="322.00" routeLength="675.74" waitingTime="23.00" waitingCount="4" stopTime="209.00" timeLoss="52.86" rerouteNo="2" devices="tripinfo_0.15 routing_0.15" vType="DEFAULT_VEHTYPE" speedFactor="1.00" vaporized=""/>
    <tripinfo id="0.16" depart="58.00" departLane="a_0" departPos="5.10" departSpeed="0.00" departDelay="0.40" arrival="380.00" arrivalLane="f_0" arrivalPos="145.00" arrivalSpeed="13.70" duration="322.00" routeLength="675.74" waitingTime="26.00" waitingCount="3" stopTime="218.00" timeLoss="42.55" rerouteNo="2" devices="tripinfo_0.16 routing_0.16" vType="DEFAULT_VEHTYPE" speedFactor="1.00" vaporized=""/>
    <tripinfo id="0.17" depart="62.00" departLane="a_0" departPos="5.10" departSpeed="0.00" departDelay="0.80" arrival="383.00" arrivalLane="f_0" arrivalPos="145.00" arrivalSpeed="13.84" duration="321.00" routeLength="675.74" waitingTime="23.00" waitingCount="3" stopTime="217.00" timeLoss="42.81" rerouteNo="2" devices="tripinfo_0.17 routing_0.17" vType="DEFAULT_VEHTYPE" speedFactor="1.00" vaporized=""/>
    <tripinfo id="0.18" depart="65.00" departLane="a_0" departPos="5.10" departSpeed="0.00" departDelay="0.20" arrival="385.00" arrivalLane="f_0" arrivalPos="145.00" arrivalSpeed="13.23" duration="320.00" routeLength="675.74" waitingTime="26.00" waitingCount="3" stopTime="207.00" timeLoss="52.25" rerouteNo="3" devices="tripinfo_0.18 routing_0.18" vType="DEFAULT_VEHTYPE" speedFactor="1.00" vaporized=""/>
    <tripinfo id="0.19" depart="69.00" departLane="a_0" departPos="5.10" departSpeed="0.00" departDelay="0.60" arrival="389.00" arrivalLane="f_0" arrivalPos="145.00" arrivalSpeed="12.72" duration="320.00" routeLength="675.74" waitingTime="21.00" waitingCount="3" stopTime="205.00" timeLoss="53.83" rerouteNo="3" devices="tripinfo_0.19 routing_0.19" vType="DEFAULT_VEHTYPE" speedFactor="1.00" vaporized=""/>
    <tripinfo id="0.20" depart="72.00" departLane="a_0" departPos="5.10" departSpeed="0.00" departDelay="0.00" arrival="392.00" arrivalLane="f_0" arrivalPos="145.00" arrivalSpeed="13.77" duration="320.00" routeLength="675.74" waitingTime="18.00" waitingCount="3" stopTime="203.00" timeLoss="55.74" rerouteNo="3" devices="tripinfo_0.20 routing_0.20" vType="DEFAULT_VEHTYPE" speedFactor="1.00" vaporized=""/>
    <tripinfo id="0.21" depart="76.00" departLane="a_0" departPos="5.10" departSpeed="0.00" departDelay="0.40" arrival="395.00" arrivalLane="f_0" arrivalPos="145.00" arrivalSpeed="12.60" duration="319.00" routeLength="675.74" waitingTime="13.00" waitingCount="2" stopTime="201.00" timeLoss="57.07" rerouteNo="3" devices="tripinfo_0.21 routing_0.21" vType="DEFAULT_VEHTYPE" speedFactor="1.00" vaporized=""/>
    <tripinfo id="0.22" depart="80.00" departLane="a_0" departPos="5.10" departSpeed="0.00" departDelay="0.80" arrival="400.00" arrivalLane="f_0" arrivalPos="145.00" arrivalSpeed="12.78" duration="320.00" routeLength="675.74" waitingTime="11.00" waitingCount="1" stopTime="200.00" timeLoss="59.77" rerouteNo="3" devices="tripinfo_0.22 routing_0.22" vType="DEFAULT_VEHTYPE" speedFactor="1.00" vaporized=""/>
    <tripinfo id="0.23" depart="83.00" departLane="a_0" departPos="5.10" departSpeed="0.00" departDelay="0.20" arrival="406.00" arrivalLane="f_0" arrivalPos="145.00" arrivalSpeed="12.93" duration="323.00" routeLength="675.74" waitingTime="12.00" waitingCount="2" stopTime="200.00" timeLoss="61.71" rerouteNo="3" devices="tripinfo_0.23 routing_0.23" vType="DEFAULT_VEHTYPE" speedFactor="1.00" vaporized=""/>
    <tripinfo id="0.35" depart="126.00" departLane="a_0" departPos="5.10" departSpeed="0.00" departDelay="0.00" arrival="469.00" arrivalLane="f_0" arrivalPos="145.00" arrivalSpeed="12.86" duration="343.00" routeLength="675.74" waitingTime="13.00" waitingCount="4" stopTime="201.00" timeLoss="81.04" rerouteNo="5" devices="tripinfo_0.35 routing_0.35" vType="DEFAULT_VEHTYPE" speedFactor="1.00" vaporized=""/>
    <tripinfo id="0.36" depart="130.00" departLane="a_0" departPos="5.10" departSpeed="0.00" departDelay="0.40" arrival="472.00" arrivalLane="f_0" arrivalPos="145.00" arrivalSpeed="13.85" duration="342.00" routeLength="675.74" waitingTime="11.00" waitingCount="3" stopTime="200.00" timeLoss="80.70" rerouteNo="4" devices="tripinfo_0.36 routing_0.36" vType="DEFAULT_VEHTYPE" speedFactor="1.00" vaporized=""/>
    <tripinfo id="0.37" depart="134.00" departLane="a_0" departPos="5.10" departSpeed="0.00" departDelay="0.80" arrival="479.00" arrivalLane="f_0" arrivalPos="145.00" arrivalSpeed="12.96" duration="345.00" routeLength="675.74" waitingTime="10.00" waitingCount="4" stopTime="200.00" timeLoss="84.68" rerouteNo="4" devices="tripinfo_0.37 routing_0.37" vType="DEFAULT_VEHTYPE" speedFactor="1.00" vaporized=""/>
    <tripinfo id="0.38" depart="137.00" departLane="a_0" departPos="5.10" departSpeed="0.00" departDelay="0.20" arrival="484.00" arrivalLane="f_0" arrivalPos="145.00" arrivalSpeed="12.68" duration="347.00" routeLength="675.74" waitingTime="5.00" waitingCount="2" stopTime="200.00" timeLoss="86.36" rerouteNo="4" devices="tripinfo_0.38 routing_0.38" vType="DEFAULT_VEHTYPE" speedFactor="1.00" vaporized=""/>
    <tripinfo id="0.39" depart="141.00" departLane="a_0" departPos="5.10" departSpeed="0.00" departDelay="0.60" arrival="490.00" arrivalLane="f_0" arrivalPos="145.00" arrivalSpeed="13.53" duration="349.00" routeLength="675.74" waitingTime="4.00" waitingCount="1" stopTime="200.00" timeLoss="87.73" rerouteNo="4" devices="tripinfo_0.39 routing_0.39" vType="DEFAULT_VEHTYPE" speedFactor="1.00" vaporized=""/>
    <tripinfo id="0.24" depart="87.00" departLane="a_0" departPos="5.10" departSpeed="0.00" departDelay="0.60" arrival="497.00" arrivalLane="f_0" arrivalPos="145.00" arrivalSpeed="13.20" duration="410.00" routeLength="856.58" waitingTime="24.00" waitingCount="5" stopTime="200.00" timeLoss="125.60" rerouteNo="8" devices="tripinfo_0.24 routing_0.24" vType="DEFAULT_VEHTYPE" speedFactor="1.00" vaporized=""/>
    <tripinfo id="0.25" depart="90.00" departLane="a_0" departPos="5.10" departSpeed="0.00" departDelay="0.00" arrival="533.00" arrivalLane="f_0" arrivalPos="145.00" arrivalSpeed="13.65" duration="443.00" routeLength="1037.42" waitingTime="29.00" waitingCount="5" stopTime="200.00" timeLoss="136.76" rerouteNo="9" devices="tripinfo_0.25 routing_0.25" vType="DEFAULT_VEHTYPE" speedFactor="1.00" vaporized=""/>
    <tripinfo id="0.40" depart="144.00" departLane="a_0" departPos="5.10" departSpeed="0.00" departDelay="0.00" arrival="538.00" arrivalLane="f_0" arrivalPos="145.00" arrivalSpeed="13.41" duration="394.00" routeLength="675.74" waitingTime="92.00" waitingCount="2" stopTime="200.00" timeLoss="133.05" rerouteNo="1" devices="tripinfo_0.40 routing_0.40" vType="DEFAULT_VEHTYPE" speedFactor="1.00" vaporized=""/>
    <tripinfo id="0.41" depart="148.00" departLane="a_0" departPos="5.10" departSpeed="0.00" departDelay="0.40" arrival="544.00" arrivalLane="f_0" arrivalPos="145.00" arrivalSpeed="13.14" duration="396.00" routeLength="675.74" waitingTime="92.00" waitingCount="2" stopTime="200.00" timeLoss="135.11" rerouteNo="1" devices="tripinfo_0.41 routing_0.41" vType="DEFAULT_VEHTYPE" speedFactor="1.00" vaporized=""/>
    <tripinfo id="0.26" depart="94.00" departLane="a_0" departPos="5.10" departSpeed="0.00" departDelay="0.40" arrival="550.00" arrivalLane="f_0" arrivalPos="145.00" arrivalSpeed="13.18" duration="456.00" routeLength="1037.42" waitingTime="34.00" waitingCount="5" stopTime="200.00" timeLoss="148.87" rerouteNo="9" devices="tripinfo_0.26 routing_0.26" vType="DEFAULT_VEHTYPE" speedFactor="1.00" vaporized=""/>
    <tripinfo id="0.27" depart="98.00" departLane="a_0" departPos="5.10" departSpeed="0.00" departDelay="0.80" arrival="556.00" arrivalLane="f_0" arrivalPos="145.00" arrivalSpeed="13.17" duration="458.00" routeLength="1037.42" waitingTime="31.00" waitingCount="5" stopTime="200.00" timeLoss="150.61" rerouteNo="9" devices="tripinfo_0.27 routing_0.27" vType="DEFAULT_VEHTYPE" speedFactor="1.00" vaporized=""/>
    <tripinfo id="0.28" depart="101.00" departLane="a_0" departPos="5.10" departSpeed="0.00" departDelay="0.20" arrival="560.00" arrivalLane="f_0" arrivalPos="145.00" arrivalSpeed="13.51" duration="459.00" routeLength="1037.42" waitingTime="29.00" waitingCount="5" stopTime="200.00" timeLoss="152.74" rerouteNo="9" devices="tripinfo_0.28 routing_0.28" vType="DEFAULT_VEHTYPE" speedFactor="1.00" vaporized=""/>
    <tripinfo id="0.29" depart="105.00" departLane="a_0" departPos="5.10" departSpeed="0.00" departDelay="0.60" arrival="569.00" arrivalLane="f_0" arrivalPos="145.00" arrivalSpeed="13.14" duration="464.00" routeLength="1037.42" waitingTime="38.00" waitingCount="4" stopTime="200.00" timeLoss="158.71" rerouteNo="10" devices="tripinfo_0.29 routing_0.29" vType="DEFAULT_VEHTYPE" speedFactor="1.00" vaporized=""/>
    <tripinfo id="0.30" depart="108.00" departLane="a_0" departPos="5.10" departSpeed="0.00" departDelay="0.00" arrival="573.00" arrivalLane="f_0" arrivalPos="145.00" arrivalSpeed="13.64" duration="465.00" routeLength="1037.42" waitingTime="39.00" waitingCount="4" stopTime="200.00" timeLoss="159.84" rerouteNo="10" devices="tripinfo_0.30 routing_0.30" vType="DEFAULT_VEHTYPE" speedFactor="1.00" vaporized=""/>
    <tripinfo id="0.31" depart="112.00" departLane="a_0" departPos="5.10" departSpeed="0.00" departDelay="0.40" arrival="582.00" arrivalLane="f_0" arrivalPos="145.00" arrivalSpeed="13.81" duration="470.00" routeLength="1037.42" waitingTime="40.00" waitingCount="5" stopTime="200.00" timeLoss="163.68" rerouteNo="10" devices="tripinfo_0.31 routing_0.31" vType="DEFAULT_VEHTYPE" speedFactor="1.00" vaporized=""/>
    <tripinfo id="0.32" depart="116.00" departLane="a_0" departPos="5.10" departSpeed="0.00" departDelay="0.80" arrival="588.00" arrivalLane="f_0" arrivalPos="145.00" arrivalSpeed="13.76" duration="472.00" routeLength="1037.42" waitingTime="38.00" waitingCount="5" stopTime="200.00" timeLoss="165.82" rerouteNo="10" devices="tripinfo_0.32 routing_0.32" vType="DEFAULT_VEHTYPE" speedFactor="1.00" vaporized=""/>
    <tripinfo id="0.33" depart="119.00" departLane="a_0" departPos="5.10" departSpeed="0.00" departDelay="0.20" arrival="594.00" arrivalLane="f_0" arrivalPos="145.00" arrivalSpeed="13.82" duration="475.00" routeLength="1037.42" waitingTime="36.00" waitingCount="5" stopTime="200.00" timeLoss="167.93" rerouteNo="10" devices="tripinfo_0.33 routing_0.33" vType="DEFAULT_VEHTYPE" speedFactor="1.00" vaporized=""/>
    <tripinfo id="0.34" depart="123.00" departLane="a_0" departPos="5.10" departSpeed="0.00" departDelay="0.60" arrival="599.00" arrivalLane="f_0" arrivalPos="145.00" arrivalSpeed="12.66" duration="476.00" routeLength="1037.42" waitingTime="29.00" waitingCount="5" stopTime="200.00" timeLoss="168.20" rerouteNo="10" devices="tripinfo_0.34 routing_0.34" vType="DEFAULT_VEHTYPE" speedFactor="1.00" vaporized=""/>
    <tripinfo id="0.42" depart="152.00" departLane="a_0" departPos="5.10" departSpeed="0.00" departDelay="0.80" arrival="628.00" arrivalLane="f_0" arrivalPos="145.00" arrivalSpeed="13.88" duration="476.00" routeLength="675.74" waitingTime="179.00" waitingCount="3" stopTime="200.00" timeLoss="215.49" rerouteNo="3" devices="tripinfo_0.42 routing_0.42" vType="DEFAULT_VEHTYPE" speedFactor="1.00" vaporized=""/>
    <tripinfo id="0.43" depart="155.00" departLane="a_0" departPos="5.10" departSpeed="0.00" departDelay="0.20" arrival="635.00" arrivalLane="f_0" arrivalPos="145.00" arrivalSpeed="13.85" duration="480.00" routeLength="675.74" waitingTime="175.00" waitingCount="3" stopTime="200.00" timeLoss="219.08" rerouteNo="3" devices="tripinfo_0.43 routing_0.43" vType="DEFAULT_VEHTYPE" speedFactor="1.00" vaporized=""/>
    <tripinfo id="0.44" depart="159.00" departLane="a_0" departPos="5.10" departSpeed="0.00" departDelay="0.60" arrival="639.00" arrivalLane="f_0" arrivalPos="145.00" arrivalSpeed="13.57" duration="480.00" routeLength="675.74" waitingTime="173.00" waitingCount="3" stopTime="200.00" timeLoss="219.71" rerouteNo="3" devices="tripinfo_0.44 routing_0.44" vType="DEFAULT_VEHTYPE" speedFactor="1.00" vaporized=""/>
    <tripinfo id="0.45" depart="162.00" departLane="a_0" departPos="5.10" departSpeed="0.00" departDelay="0.00" arrival="643.00" arrivalLane="f_0" arrivalPos="145.00" arrivalSpeed="13.82" duration="481.00" routeLength="675.74" waitingTime="172.00" waitingCount="3" stopTime="200.00" timeLoss="220.37" rerouteNo="3" devices="tripinfo_0.45 routing_0.45" vType="DEFAULT_VEHTYPE" speedFactor="1.00" vaporized=""/>
    <tripinfo id="0.46" depart="166.00" departLane="a_0" departPos="5.10" departSpeed="0.00" departDelay="0.40" arrival="650.00" arrivalLane="f_0" arrivalPos="145.00" arrivalSpeed="13.34" duration="484.00" routeLength="675.74" waitingTime="171.00" waitingCount="3" stopTime="200.00" timeLoss="223.00" rerouteNo="3" devices="tripinfo_0.46 routing_0.46" vType="DEFAULT_VEHTYPE" speedFactor="1.00" vaporized=""/>
    <tripinfo id="0.47" depart="170.00" departLane="a_0" departPos="5.10" departSpeed="0.00" departDelay="0.80" arrival="656.00" arrivalLane="f_0" arrivalPos="145.00" arrivalSpeed="12.95" duration="486.00" routeLength="675.74" waitingTime="171.00" waitingCount="4" stopTime="200.00" timeLoss="225.32" rerouteNo="3" devices="tripinfo_0.47 routing_0.47" vType="DEFAULT_VEHTYPE" speedFactor="1.00" vaporized=""/>
    <tripinfo id="0.48" depart="173.00" departLane="a_0" departPos="5.10" departSpeed="0.00" departDelay="0.20" arrival="692.00" arrivalLane="f_0" arrivalPos="145.00" arrivalSpeed="13.34" duration="519.00" routeLength="856.58" waitingTime="178.00" waitingCount="4" stopTime="200.00" timeLoss="235.77" rerouteNo="8" devices="tripinfo_0.48 routing_0.48" vType="DEFAULT_VEHTYPE" speedFactor="1.00" vaporized=""/>
    <tripinfo id="0.49" depart="177.00" departLane="a_0" departPos="5.10" departSpeed="0.00" departDelay="0.60" arrival="698.00" arrivalLane="f_0" arrivalPos="145.00" arrivalSpeed="13.54" duration="521.00" routeLength="856.58" waitingTime="175.00" waitingCount="4" stopTime="200.00" timeLoss="237.48" rerouteNo="8" devices="tripinfo_0.49 routing_0.49" vType="DEFAULT_VEHTYPE" speedFactor="1.00" vaporized=""/>
</tripinfos>
