<?xml version="1.0" encoding="UTF-8"?>

<!-- generated on 2025-01-08 10:24:56 by Eclipse SUMO sumo Version v1_21_0+1725-b62fc457f77
This data file and the accompanying materials
are made available under the terms of the Eclipse Public License v2.0
which accompanies this distribution, and is available at
http://www.eclipse.org/legal/epl-v20.html
This file may also be made available under the following Secondary
Licenses when the conditions for such availability set forth in the Eclipse
Public License 2.0 are satisfied: GNU General Public License, version 2
or later which is available at
https://www.gnu.org/licenses/old-licenses/gpl-2.0-standalone.html
SPDX-License-Identifier: EPL-2.0 OR GPL-2.0-or-later
<sumoConfiguration xmlns:xsi="http://www.w3.org/2001/XMLSchema-instance" xsi:noNamespaceSchemaLocation="http://sumo.dlr.de/xsd/sumoConfiguration.xsd">

    <input>
        <net-file value="net.net.xml"/>
        <route-files value="input_routes.rou.xml"/>
        <additional-files value="input_additional.add.xml"/>
    </input>

    <output>
        <write-license value="true"/>
        <tripinfo-output value="tripinfos.xml"/>
    </output>

    <processing>
        <default.speeddev value="0"/>
    </processing>

    <report>
        <xml-validation value="never"/>
        <duration-log.statistics value="true"/>
        <no-step-log value="true"/>
    </report>

</sumoConfiguration>
-->

<tripinfos xmlns:xsi="http://www.w3.org/2001/XMLSchema-instance" xsi:noNamespaceSchemaLocation="http://sumo.dlr.de/xsd/tripinfo_file.xsd">
    <tripinfo id="0.0" depart="0.00" departLane="a_0" departPos="5.10" departSpeed="0.00" departDelay="0.00" arrival="268.00" arrivalLane="f_0" arrivalPos="145.00" arrivalSpeed="13.43" duration="268.00" routeLength="494.90" waitingTime="16.00" waitingCount="1" stopTime="215.00" timeLoss="14.67" rerouteNo="0" devices="tripinfo_0.0 routing_0.0" vType="DEFAULT_VEHTYPE" speedFactor="1.00" vaporized=""/>
    <tripinfo id="0.2" depart="8.00" departLane="a_0" departPos="5.10" departSpeed="0.00" departDelay="0.80" arrival="270.00" arrivalLane="f_0" arrivalPos="145.00" arrivalSpeed="12.81" duration="262.00" routeLength="494.90" waitingTime="11.00" waitingCount="1" stopTime="211.00" timeLoss="12.55" rerouteNo="0" devices="tripinfo_0.2 routing_0.2" vType="DEFAULT_VEHTYPE" speedFactor="1.00" vaporized=""/>
    <tripinfo id="0.1" depart="4.00" departLane="a_0" departPos="5.10" departSpeed="0.00" departDelay="0.40" arrival="271.00" arrivalLane="f_0" arrivalPos="145.00" arrivalSpeed="13.49" duration="267.00" routeLength="494.90" waitingTime="17.00" waitingCount="1" stopTime="217.00" timeLoss="12.26" rerouteNo="0" devices="tripinfo_0.1 routing_0.1" vType="DEFAULT_VEHTYPE" speedFactor="1.00" vaporized=""/>
    <tripinfo id="0.5" depart="18.00" departLane="a_0" departPos="5.10" departSpeed="0.00" departDelay="0.00" arrival="276.00" arrivalLane="f_0" arrivalPos="145.00" arrivalSpeed="13.69" duration="258.00" routeLength="494.90" waitingTime="2.00" waitingCount="1" stopTime="201.00" timeLoss="18.51" rerouteNo="0" devices="tripinfo_0.5 routing_0.5" vType="DEFAULT_VEHTYPE" speedFactor="1.00" vaporized=""/>
    <tripinfo id="0.3" depart="11.00" departLane="a_0" departPos="5.10" departSpeed="0.00" departDelay="0.20" arrival="278.00" arrivalLane="f_0" arrivalPos="145.00" arrivalSpeed="12.85" duration="267.00" routeLength="494.90" waitingTime="13.00" waitingCount="1" stopTime="213.00" timeLoss="15.62" rerouteNo="0" devices="tripinfo_0.3 routing_0.3" vType="DEFAULT_VEHTYPE" speedFactor="1.00" vaporized=""/>
    <tripinfo id="0.4" depart="15.00" departLane="a_0" departPos="5.10" departSpeed="0.00" departDelay="0.60" arrival="281.00" arrivalLane="f_0" arrivalPos="145.00" arrivalSpeed="13.88" duration="266.00" routeLength="494.90" waitingTime="13.00" waitingCount="1" stopTime="213.00" timeLoss="14.45" rerouteNo="0" devices="tripinfo_0.4 routing_0.4" vType="DEFAULT_VEHTYPE" speedFactor="1.00" vaporized=""/>
    <tripinfo id="0.6" depart="22.00" departLane="a_0" departPos="5.10" departSpeed="0.00" departDelay="0.40" arrival="355.00" arrivalLane="f_0" arrivalPos="145.00" arrivalSpeed="12.69" duration="333.00" routeLength="675.74" waitingTime="19.00" waitingCount="3" stopTime="200.00" timeLoss="72.47" rerouteNo="1" devices="tripinfo_0.6 routing_0.6" vType="DEFAULT_VEHTYPE" speedFactor="1.00" vaporized=""/>
    <tripinfo id="0.7" depart="26.00" departLane="a_0" departPos="5.10" departSpeed="0.00" departDelay="0.80" arrival="357.00" arrivalLane="f_0" arrivalPos="145.00" arrivalSpeed="13.11" duration="331.00" routeLength="675.74" waitingTime="16.00" waitingCount="4" stopTime="200.00" timeLoss="70.23" rerouteNo="1" devices="tripinfo_0.7 routing_0.7" vType="DEFAULT_VEHTYPE" speedFactor="1.00" vaporized=""/>
    <tripinfo id="0.8" depart="29.00" departLane="a_0" departPos="5.10" departSpeed="0.00" departDelay="0.20" arrival="359.00" arrivalLane="f_0" arrivalPos="145.00" arrivalSpeed="12.69" duration="330.00" routeLength="675.74" waitingTime="11.00" waitingCount="3" stopTime="200.00" timeLoss="68.87" rerouteNo="1" devices="tripinfo_0.8 routing_0.8" vType="DEFAULT_VEHTYPE" speedFactor="1.00" vaporized=""/>
    <tripinfo id="0.9" depart="33.00" departLane="a_0" departPos="5.10" departSpeed="0.00" departDelay="0.60" arrival="361.00" arrivalLane="f_0" arrivalPos="145.00" arrivalSpeed="12.91" duration="328.00" routeLength="675.74" waitingTime="9.00" waitingCount="4" stopTime="201.00" timeLoss="66.40" rerouteNo="1" devices="tripinfo_0.9 routing_0.9" vType="DEFAULT_VEHTYPE" speedFactor="1.00" vaporized=""/>
    <tripinfo id="0.10" depart="36.00" departLane="a_0" departPos="5.10" departSpeed="0.00" departDelay="0.00" arrival="363.00" arrivalLane="f_0" arrivalPos="145.00" arrivalSpeed="13.88" duration="327.00" routeLength="675.74" waitingTime="18.00" waitingCount="2" stopTime="214.00" timeLoss="52.62" rerouteNo="1" devices="tripinfo_0.10 routing_0.10" vType="DEFAULT_VEHTYPE" speedFactor="1.00" vaporized=""/>
    <tripinfo id="0.11" depart="40.00" departLane="a_0" departPos="5.10" departSpeed="0.00" departDelay="0.40" arrival="366.00" arrivalLane="f_0" arrivalPos="145.00" arrivalSpeed="12.84" duration="326.00" routeLength="675.74" waitingTime="17.00" waitingCount="2" stopTime="212.00" timeLoss="53.26" rerouteNo="1" devices="tripinfo_0.11 routing_0.11" vType="DEFAULT_VEHTYPE" speedFactor="1.00" vaporized=""/>
    <tripinfo id="0.12" depart="44.00" departLane="a_0" departPos="5.10" departSpeed="0.00" departDelay="0.80" arrival="368.00" arrivalLane="f_0" arrivalPos="145.00" arrivalSpeed="13.43" duration="324.00" routeLength="675.74" waitingTime="16.00" waitingCount="3" stopTime="205.00" timeLoss="58.07" rerouteNo="2" devices="tripinfo_0.12 routing_0.12" vType="DEFAULT_VEHTYPE" speedFactor="1.00" vaporized=""/>
    <tripinfo id="0.13" depart="47.00" departLane="a_0" departPos="5.10" departSpeed="0.00" departDelay="0.20" arrival="371.00" arrivalLane="f_0" arrivalPos="145.00" arrivalSpeed="13.75" duration="324.00" routeLength="675.74" waitingTime="16.00" waitingCount="3" stopTime="205.00" timeLoss="57.90" rerouteNo="2" devices="tripinfo_0.13 routing_0.13" vType="DEFAULT_VEHTYPE" speedFactor="1.00" vaporized=""/>
    <tripinfo id="0.14" depart="51.00" departLane="a_0" departPos="5.10" departSpeed="0.00" departDelay="0.60" arrival="373.00" arrivalLane="f_0" arrivalPos="145.00" arrivalSpeed="13.16" duration="322.00" routeLength="675.74" waitingTime="15.00" waitingCount="3" stopTime="204.00" timeLoss="57.12" rerouteNo="2" devices="tripinfo_0.14 routing_0.14" vType="DEFAULT_VEHTYPE" speedFactor="1.00" vaporized=""/>
    <tripinfo id="0.15" depart="54.00" departLane="a_0" departPos="5.10" departSpeed="0.00" departDelay="0.00" arrival="376.00" arrivalLane="f_0" arrivalPos="145.00" arrivalSpeed="12.86" duration="322.00" routeLength="675.74" waitingTime="14.00" waitingCount="3" stopTime="202.00" timeLoss="59.30" rerouteNo="2" devices="tripinfo_0.15 routing_0.15" vType="DEFAULT_VEHTYPE" speedFactor="1.00" vaporized=""/>
    <tripinfo id="0.16" depart="58.00" departLane="a_0" departPos="5.10" departSpeed="0.00" departDelay="0.40" arrival="379.00" arrivalLane="f_0" arrivalPos="145.00" arrivalSpeed="13.84" duration="321.00" routeLength="675.74" waitingTime="19.00" waitingCount="2" stopTime="212.00" timeLoss="48.16" rerouteNo="2" devices="tripinfo_0.16 routing_0.16" vType="DEFAULT_VEHTYPE" speedFactor="1.00" vaporized=""/>
    <tripinfo id="0.17" depart="62.00" departLane="a_0" departPos="5.10" departSpeed="0.00" departDelay="0.80" arrival="381.00" arrivalLane="f_0" arrivalPos="145.00" arrivalSpeed="13.28" duration="319.00" routeLength="675.74" waitingTime="16.00" waitingCount="2" stopTime="211.00" timeLoss="47.84" rerouteNo="2" devices="tripinfo_0.17 routing_0.17" vType="DEFAULT_VEHTYPE" speedFactor="1.00" vaporized=""/>
    <tripinfo id="0.18" depart="65.00" departLane="a_0" departPos="5.10" departSpeed="0.00" departDelay="0.20" arrival="388.00" arrivalLane="f_0" arrivalPos="145.00" arrivalSpeed="13.07" duration="323.00" routeLength="675.74" waitingTime="21.00" waitingCount="3" stopTime="202.00" timeLoss="60.47" rerouteNo="3" devices="tripinfo_0.18 routing_0.18" vType="DEFAULT_VEHTYPE" speedFactor="1.00" vaporized=""/>
    <tripinfo id="0.19" depart="69.00" departLane="a_0" departPos="5.10" departSpeed="0.00" departDelay="0.60" arrival="391.00" arrivalLane="f_0" arrivalPos="145.00" arrivalSpeed="13.31" duration="322.00" routeLength="675.74" waitingTime="21.00" waitingCount="2" stopTime="200.00" timeLoss="60.82" rerouteNo="3" devices="tripinfo_0.19 routing_0.19" vType="DEFAULT_VEHTYPE" speedFactor="1.00" vaporized=""/>
    <tripinfo id="0.20" depart="72.00" departLane="a_0" departPos="5.10" departSpeed="0.00" departDelay="0.00" arrival="393.00" arrivalLane="f_0" arrivalPos="145.00" arrivalSpeed="13.36" duration="321.00" routeLength="675.74" waitingTime="19.00" waitingCount="2" stopTime="200.00" timeLoss="60.94" rerouteNo="3" devices="tripinfo_0.20 routing_0.20" vType="DEFAULT_VEHTYPE" speedFactor="1.00" vaporized=""/>
    <tripinfo id="0.21" depart="76.00" departLane="a_0" departPos="5.10" departSpeed="0.00" departDelay="0.40" arrival="399.00" arrivalLane="f_0" arrivalPos="145.00" arrivalSpeed="13.44" duration="323.00" routeLength="675.74" waitingTime="16.00" waitingCount="2" stopTime="200.00" timeLoss="62.31" rerouteNo="3" devices="tripinfo_0.21 routing_0.21" vType="DEFAULT_VEHTYPE" speedFactor="1.00" vaporized=""/>
    <tripinfo id="0.22" depart="80.00" departLane="a_0" departPos="5.10" departSpeed="0.00" departDelay="0.80" arrival="405.00" arrivalLane="f_0" arrivalPos="145.00" arrivalSpeed="13.69" duration="325.00" routeLength="675.74" waitingTime="14.00" waitingCount="2" stopTime="200.00" timeLoss="63.97" rerouteNo="3" devices="tripinfo_0.22 routing_0.22" vType="DEFAULT_VEHTYPE" speedFactor="1.00" vaporized=""/>
    <tripinfo id="0.23" depart="83.00" departLane="a_0" departPos="5.10" departSpeed="0.00" departDelay="0.20" arrival="411.00" arrivalLane="f_0" arrivalPos="145.00" arrivalSpeed="13.63" duration="328.00" routeLength="675.74" waitingTime="11.00" waitingCount="3" stopTime="200.00" timeLoss="66.59" rerouteNo="3" devices="tripinfo_0.23 routing_0.23" vType="DEFAULT_VEHTYPE" speedFactor="1.00" vaporized=""/>
    <tripinfo id="0.32" depart="116.00" departLane="a_0" departPos="5.10" departSpeed="0.00" departDelay="0.80" arrival="470.00" arrivalLane="f_0" arrivalPos="145.00" arrivalSpeed="12.99" duration="354.00" routeLength="675.74" waitingTime="21.00" waitingCount="3" stopTime="200.00" timeLoss="92.93" rerouteNo="5" devices="tripinfo_0.32 routing_0.32" vType="DEFAULT_VEHTYPE" speedFactor="1.00" vaporized=""/>
    <tripinfo id="0.33" depart="119.00" departLane="a_0" departPos="5.10" departSpeed="0.00" departDelay="0.20" arrival="475.00" arrivalLane="f_0" arrivalPos="145.00" arrivalSpeed="13.23" duration="356.00" routeLength="675.74" waitingTime="17.00" waitingCount="3" stopTime="200.00" timeLoss="95.03" rerouteNo="4" devices="tripinfo_0.33 routing_0.33" vType="DEFAULT_VEHTYPE" speedFactor="1.00" vaporized=""/>
    <tripinfo id="0.34" depart="123.00" departLane="a_0" departPos="5.10" departSpeed="0.00" departDelay="0.60" arrival="480.00" arrivalLane="f_0" arrivalPos="145.00" arrivalSpeed="13.68" duration="357.00" routeLength="675.74" waitingTime="17.00" waitingCount="4" stopTime="200.00" timeLoss="96.03" rerouteNo="4" devices="tripinfo_0.34 routing_0.34" vType="DEFAULT_VEHTYPE" speedFactor="1.00" vaporized=""/>
    <tripinfo id="0.35" depart="126.00" departLane="a_0" departPos="5.10" departSpeed="0.00" departDelay="0.00" arrival="488.00" arrivalLane="f_0" arrivalPos="145.00" arrivalSpeed="12.75" duration="362.00" routeLength="675.74" waitingTime="18.00" waitingCount="4" stopTime="200.00" timeLoss="100.84" rerouteNo="4" devices="tripinfo_0.35 routing_0.35" vType="DEFAULT_VEHTYPE" speedFactor="1.00" vaporized=""/>
    <tripinfo id="0.36" depart="130.00" departLane="a_0" departPos="5.10" departSpeed="0.00" departDelay="0.40" arrival="493.00" arrivalLane="f_0" arrivalPos="145.00" arrivalSpeed="13.13" duration="363.00" routeLength="675.74" waitingTime="15.00" waitingCount="3" stopTime="200.00" timeLoss="101.84" rerouteNo="4" devices="tripinfo_0.36 routing_0.36" vType="DEFAULT_VEHTYPE" speedFactor="1.00" vaporized=""/>
    <tripinfo id="0.37" depart="134.00" departLane="a_0" departPos="5.10" departSpeed="0.00" departDelay="0.80" arrival="499.00" arrivalLane="f_0" arrivalPos="145.00" arrivalSpeed="13.06" duration="365.00" routeLength="675.74" waitingTime="14.00" waitingCount="3" stopTime="200.00" timeLoss="104.08" rerouteNo="4" devices="tripinfo_0.37 routing_0.37" vType="DEFAULT_VEHTYPE" speedFactor="1.00" vaporized=""/>
    <tripinfo id="0.38" depart="137.00" departLane="a_0" departPos="5.10" departSpeed="0.00" departDelay="0.20" arrival="536.00" arrivalLane="f_0" arrivalPos="145.00" arrivalSpeed="13.80" duration="399.00" routeLength="856.58" waitingTime="19.00" waitingCount="3" stopTime="200.00" timeLoss="115.82" rerouteNo="5" devices="tripinfo_0.38 routing_0.38" vType="DEFAULT_VEHTYPE" speedFactor="1.00" vaporized=""/>
    <tripinfo id="0.39" depart="141.00" departLane="a_0" departPos="5.10" departSpeed="0.00" departDelay="0.60" arrival="543.00" arrivalLane="f_0" arrivalPos="145.00" arrivalSpeed="12.78" duration="402.00" routeLength="856.58" waitingTime="16.00" waitingCount="3" stopTime="200.00" timeLoss="117.80" rerouteNo="5" devices="tripinfo_0.39 routing_0.39" vType="DEFAULT_VEHTYPE" speedFactor="1.00" vaporized=""/>
    <tripinfo id="0.40" depart="144.00" departLane="a_0" departPos="5.10" departSpeed="0.00" departDelay="0.00" arrival="549.00" arrivalLane="f_0" arrivalPos="145.00" arrivalSpeed="12.64" duration="405.00" routeLength="856.58" waitingTime="13.00" waitingCount="3" stopTime="200.00" timeLoss="121.02" rerouteNo="5" devices="tripinfo_0.40 routing_0.40" vType="DEFAULT_VEHTYPE" speedFactor="1.00" vaporized=""/>
    <tripinfo id="0.24" depart="87.00" departLane="a_0" departPos="5.10" departSpeed="0.00" departDelay="0.60" arrival="552.00" arrivalLane="f_0" arrivalPos="145.00" arrivalSpeed="13.51" duration="465.00" routeLength="1037.42" waitingTime="29.00" waitingCount="6" stopTime="200.00" timeLoss="158.32" rerouteNo="9" devices="tripinfo_0.24 routing_0.24" vType="DEFAULT_VEHTYPE" speedFactor="1.00" vaporized=""/>
    <tripinfo id="0.25" depart="90.00" departLane="a_0" departPos="5.10" departSpeed="0.00" departDelay="0.00" arrival="558.00" arrivalLane="f_0" arrivalPos="145.00" arrivalSpeed="13.40" duration="468.00" routeLength="1037.42" waitingTime="25.00" waitingCount="4" stopTime="200.00" timeLoss="161.02" rerouteNo="9" devices="tripinfo_0.25 routing_0.25" vType="DEFAULT_VEHTYPE" speedFactor="1.00" vaporized=""/>
    <tripinfo id="0.26" depart="94.00" departLane="a_0" departPos="5.10" departSpeed="0.00" departDelay="0.40" arrival="563.00" arrivalLane="f_0" arrivalPos="145.00" arrivalSpeed="13.71" duration="469.00" routeLength="1037.42" waitingTime="26.00" waitingCount="5" stopTime="200.00" timeLoss="162.16" rerouteNo="9" devices="tripinfo_0.26 routing_0.26" vType="DEFAULT_VEHTYPE" speedFactor="1.00" vaporized=""/>
    <tripinfo id="0.27" depart="98.00" departLane="a_0" departPos="5.10" departSpeed="0.00" departDelay="0.80" arrival="575.00" arrivalLane="f_0" arrivalPos="145.00" arrivalSpeed="13.30" duration="477.00" routeLength="1037.42" waitingTime="35.00" waitingCount="6" stopTime="200.00" timeLoss="170.34" rerouteNo="10" devices="tripinfo_0.27 routing_0.27" vType="DEFAULT_VEHTYPE" speedFactor="1.00" vaporized=""/>
    <tripinfo id="0.28" depart="101.00" departLane="a_0" departPos="5.10" departSpeed="0.00" departDelay="0.20" arrival="582.00" arrivalLane="f_0" arrivalPos="145.00" arrivalSpeed="13.71" duration="481.00" routeLength="1037.42" waitingTime="37.00" waitingCount="7" stopTime="200.00" timeLoss="173.87" rerouteNo="10" devices="tripinfo_0.28 routing_0.28" vType="DEFAULT_VEHTYPE" speedFactor="1.00" vaporized=""/>
    <tripinfo id="0.29" depart="105.00" departLane="a_0" departPos="5.10" departSpeed="0.00" departDelay="0.60" arrival="587.00" arrivalLane="f_0" arrivalPos="145.00" arrivalSpeed="13.58" duration="482.00" routeLength="1037.42" waitingTime="29.00" waitingCount="6" stopTime="200.00" timeLoss="175.66" rerouteNo="10" devices="tripinfo_0.29 routing_0.29" vType="DEFAULT_VEHTYPE" speedFactor="1.00" vaporized=""/>
    <tripinfo id="0.30" depart="108.00" departLane="a_0" departPos="5.10" departSpeed="0.00" departDelay="0.00" arrival="593.00" arrivalLane="f_0" arrivalPos="145.00" arrivalSpeed="13.60" duration="485.00" routeLength="1037.42" waitingTime="35.00" waitingCount="5" stopTime="200.00" timeLoss="178.29" rerouteNo="10" devices="tripinfo_0.30 routing_0.30" vType="DEFAULT_VEHTYPE" speedFactor="1.00" vaporized=""/>
    <tripinfo id="0.31" depart="112.00" departLane="a_0" departPos="5.10" departSpeed="0.00" departDelay="0.40" arrival="599.00" arrivalLane="f_0" arrivalPos="145.00" arrivalSpeed="13.82" duration="487.00" routeLength="1037.42" waitingTime="32.00" waitingCount="5" stopTime="200.00" timeLoss="180.27" rerouteNo="10" devices="tripinfo_0.31 routing_0.31" vType="DEFAULT_VEHTYPE" speedFactor="1.00" vaporized=""/>
    <tripinfo id="0.41" depart="148.00" departLane="a_0" departPos="5.10" departSpeed="0.00" departDelay="0.40" arrival="617.00" arrivalLane="f_0" arrivalPos="145.00" arrivalSpeed="13.20" duration="469.00" routeLength="675.74" waitingTime="169.00" waitingCount="1" stopTime="200.00" timeLoss="208.26" rerouteNo="2" devices="tripinfo_0.41 routing_0.41" vType="DEFAULT_VEHTYPE" speedFactor="1.00" vaporized=""/>
    <tripinfo id="0.42" depart="152.00" departLane="a_0" departPos="5.10" departSpeed="0.00" departDelay="0.80" arrival="626.00" arrivalLane="f_0" arrivalPos="145.00" arrivalSpeed="13.38" duration="474.00" routeLength="675.74" waitingTime="173.00" waitingCount="2" stopTime="200.00" timeLoss="214.19" rerouteNo="3" devices="tripinfo_0.42 routing_0.42" vType="DEFAULT_VEHTYPE" speedFactor="1.00" vaporized=""/>
    <tripinfo id="0.43" depart="155.00" departLane="a_0" departPos="5.10" departSpeed="0.00" departDelay="0.20" arrival="635.00" arrivalLane="f_0" arrivalPos="145.00" arrivalSpeed="12.64" duration="480.00" routeLength="675.74" waitingTime="172.00" waitingCount="3" stopTime="200.00" timeLoss="218.56" rerouteNo="3" devices="tripinfo_0.43 routing_0.43" vType="DEFAULT_VEHTYPE" speedFactor="1.00" vaporized=""/>
    <tripinfo id="0.44" depart="159.00" departLane="a_0" departPos="5.10" departSpeed="0.00" departDelay="0.60" arrival="639.00" arrivalLane="f_0" arrivalPos="145.00" arrivalSpeed="12.88" duration="480.00" routeLength="675.74" waitingTime="172.00" waitingCount="3" stopTime="200.00" timeLoss="219.95" rerouteNo="3" devices="tripinfo_0.44 routing_0.44" vType="DEFAULT_VEHTYPE" speedFactor="1.00" vaporized=""/>
    <tripinfo id="0.45" depart="162.00" departLane="a_0" departPos="5.10" departSpeed="0.00" departDelay="0.00" arrival="644.00" arrivalLane="f_0" arrivalPos="145.00" arrivalSpeed="13.33" duration="482.00" routeLength="675.74" waitingTime="168.00" waitingCount="2" stopTime="200.00" timeLoss="220.92" rerouteNo="3" devices="tripinfo_0.45 routing_0.45" vType="DEFAULT_VEHTYPE" speedFactor="1.00" vaporized=""/>
    <tripinfo id="0.46" depart="166.00" departLane="a_0" departPos="5.10" departSpeed="0.00" departDelay="0.40" arrival="648.00" arrivalLane="f_0" arrivalPos="145.00" arrivalSpeed="12.95" duration="482.00" routeLength="675.74" waitingTime="167.00" waitingCount="2" stopTime="200.00" timeLoss="221.89" rerouteNo="3" devices="tripinfo_0.46 routing_0.46" vType="DEFAULT_VEHTYPE" speedFactor="1.00" vaporized=""/>
    <tripinfo id="0.47" depart="170.00" departLane="a_0" departPos="5.10" departSpeed="0.00" departDelay="0.80" arrival="653.00" arrivalLane="f_0" arrivalPos="145.00" arrivalSpeed="12.90" duration="483.00" routeLength="675.74" waitingTime="169.00" waitingCount="4" stopTime="200.00" timeLoss="222.34" rerouteNo="3" devices="tripinfo_0.47 routing_0.47" vType="DEFAULT_VEHTYPE" speedFactor="1.00" vaporized=""/>
    <tripinfo id="0.48" depart="173.00" departLane="a_0" departPos="5.10" departSpeed="0.00" departDelay="0.20" arrival="692.00" arrivalLane="f_0" arrivalPos="145.00" arrivalSpeed="13.12" duration="519.00" routeLength="856.58" waitingTime="171.00" waitingCount="3" stopTime="200.00" timeLoss="235.17" rerouteNo="8" devices="tripinfo_0.48 routing_0.48" vType="DEFAULT_VEHTYPE" speedFactor="1.00" vaporized=""/>
    <tripinfo id="0.49" depart="177.00" departLane="a_0" departPos="5.10" departSpeed="0.00" departDelay="0.60" arrival="698.00" arrivalLane="f_0" arrivalPos="145.00" arrivalSpeed="13.81" duration="521.00" routeLength="856.58" waitingTime="171.00" waitingCount="4" stopTime="200.00" timeLoss="237.36" rerouteNo="8" devices="tripinfo_0.49 routing_0.49" vType="DEFAULT_VEHTYPE" speedFactor="1.00" vaporized=""/>
</tripinfos>
