<?xml version="1.0" encoding="UTF-8"?>

<!-- generated on 2026-04-23T11:43:54.434459+01:00 by Eclipse SUMO sumo v1_26_0+1345-5ee8d27e481
This data file and the accompanying materials
are made available under the terms of the Eclipse Public License v2.0
which accompanies this distribution, and is available at
http://www.eclipse.org/legal/epl-v20.html
This file may also be made available under the following Secondary
Licenses when the conditions for such availability set forth in the Eclipse
Public License 2.0 are satisfied: GNU General Public License, version 2
or later which is available at
https://www.gnu.org/licenses/old-licenses/gpl-2.0-standalone.html
SPDX-License-Identifier: EPL-2.0 OR GPL-2.0-or-later
<sumoConfiguration xmlns:xsi="http://www.w3.org/2001/XMLSchema-instance" xsi:noNamespaceSchemaLocation="http://sumo.dlr.de/xsd/sumoConfiguration.xsd">

    <input>
        <net-file value="net.net.xml"/>
        <route-files value="input_routes.rou.xml"/>
        <additional-files value="input_additional.add.xml"/>
    </input>

    <output>
        <write-license value="true"/>
        <tripinfo-output value="tripinfos.xml"/>
    </output>

    <processing>
        <default.departspeed value="0"/>
        <default.departlane value="first"/>
        <default.speeddev value="0"/>
    </processing>

    <report>
        <xml-validation value="never"/>
        <duration-log.statistics value="true"/>
        <no-step-log value="true"/>
    </report>

</sumoConfiguration>
-->

<tripinfos xmlns:xsi="http://www.w3.org/2001/XMLSchema-instance" xsi:noNamespaceSchemaLocation="http://sumo.dlr.de/xsd/tripinfo_file.xsd">
    <tripinfo id="0.0" depart="0.00" departLane="a_0" departPos="5.10" departSpeed="0.00" departDelay="0.00" arrival="269.00" arrivalLane="f_0" arrivalPos="145.00" arrivalSpeed="13.70" duration="269.00" routeLength="494.90" waitingTime="16.00" waitingCount="1" stopTime="215.00" timeLoss="14.16" rerouteNo="0" devices="tripinfo_0.0 routing_0.0" vType="DEFAULT_VEHTYPE" speedFactor="1.00" vaporized=""/>
    <tripinfo id="0.1" depart="4.00" departLane="a_0" departPos="5.10" departSpeed="0.00" departDelay="0.40" arrival="271.00" arrivalLane="f_0" arrivalPos="145.00" arrivalSpeed="13.59" duration="267.00" routeLength="494.90" waitingTime="15.00" waitingCount="1" stopTime="215.00" timeLoss="11.30" rerouteNo="0" devices="tripinfo_0.1 routing_0.1" vType="DEFAULT_VEHTYPE" speedFactor="1.00" vaporized=""/>
    <tripinfo id="0.2" depart="8.00" departLane="a_0" departPos="5.10" departSpeed="0.00" departDelay="0.80" arrival="274.00" arrivalLane="f_0" arrivalPos="145.00" arrivalSpeed="12.93" duration="266.00" routeLength="494.90" waitingTime="16.00" waitingCount="1" stopTime="216.00" timeLoss="9.82" rerouteNo="0" devices="tripinfo_0.2 routing_0.2" vType="DEFAULT_VEHTYPE" speedFactor="1.00" vaporized=""/>
    <tripinfo id="0.4" depart="15.00" departLane="a_0" departPos="5.10" departSpeed="0.00" departDelay="0.60" arrival="278.00" arrivalLane="f_0" arrivalPos="145.00" arrivalSpeed="13.22" duration="263.00" routeLength="494.90" waitingTime="10.00" waitingCount="1" stopTime="210.00" timeLoss="11.94" rerouteNo="0" devices="tripinfo_0.4 routing_0.4" vType="DEFAULT_VEHTYPE" speedFactor="1.00" vaporized=""/>
    <tripinfo id="0.3" depart="11.00" departLane="a_0" departPos="5.10" departSpeed="0.00" departDelay="0.20" arrival="281.00" arrivalLane="f_0" arrivalPos="145.00" arrivalSpeed="13.14" duration="270.00" routeLength="494.90" waitingTime="18.00" waitingCount="1" stopTime="218.00" timeLoss="11.58" rerouteNo="0" devices="tripinfo_0.3 routing_0.3" vType="DEFAULT_VEHTYPE" speedFactor="1.00" vaporized=""/>
    <tripinfo id="0.5" depart="18.00" departLane="a_0" departPos="5.10" departSpeed="0.00" departDelay="0.00" arrival="284.00" arrivalLane="f_0" arrivalPos="145.00" arrivalSpeed="13.46" duration="266.00" routeLength="494.90" waitingTime="11.00" waitingCount="1" stopTime="211.00" timeLoss="13.82" rerouteNo="0" devices="tripinfo_0.5 routing_0.5" vType="DEFAULT_VEHTYPE" speedFactor="1.00" vaporized=""/>
    <tripinfo id="0.6" depart="22.00" departLane="a_0" departPos="5.10" departSpeed="0.00" departDelay="0.40" arrival="352.00" arrivalLane="f_0" arrivalPos="145.00" arrivalSpeed="12.99" duration="330.00" routeLength="675.74" waitingTime="15.00" waitingCount="4" stopTime="201.00" timeLoss="62.24" rerouteNo="1" devices="tripinfo_0.6 routing_0.6" vType="DEFAULT_VEHTYPE" speedFactor="1.00" vaporized=""/>
    <tripinfo id="0.7" depart="26.00" departLane="a_0" departPos="5.10" departSpeed="0.00" departDelay="0.80" arrival="354.00" arrivalLane="f_0" arrivalPos="145.00" arrivalSpeed="13.68" duration="328.00" routeLength="675.74" waitingTime="16.00" waitingCount="4" stopTime="204.00" timeLoss="62.17" rerouteNo="1" devices="tripinfo_0.7 routing_0.7" vType="DEFAULT_VEHTYPE" speedFactor="1.00" vaporized=""/>
    <tripinfo id="0.8" depart="29.00" departLane="a_0" departPos="5.10" departSpeed="0.00" departDelay="0.20" arrival="357.00" arrivalLane="f_0" arrivalPos="145.00" arrivalSpeed="12.69" duration="328.00" routeLength="675.74" waitingTime="14.00" waitingCount="3" stopTime="206.00" timeLoss="59.45" rerouteNo="1" devices="tripinfo_0.8 routing_0.8" vType="DEFAULT_VEHTYPE" speedFactor="1.00" vaporized=""/>
    <tripinfo id="0.9" depart="33.00" departLane="a_0" departPos="5.10" departSpeed="0.00" departDelay="0.60" arrival="359.00" arrivalLane="f_0" arrivalPos="145.00" arrivalSpeed="12.78" duration="326.00" routeLength="675.74" waitingTime="19.00" waitingCount="3" stopTime="213.00" timeLoss="49.50" rerouteNo="1" devices="tripinfo_0.9 routing_0.9" vType="DEFAULT_VEHTYPE" speedFactor="1.00" vaporized=""/>
    <tripinfo id="0.10" depart="36.00" departLane="a_0" departPos="5.10" departSpeed="0.00" departDelay="0.00" arrival="361.00" arrivalLane="f_0" arrivalPos="145.00" arrivalSpeed="13.33" duration="325.00" routeLength="675.74" waitingTime="18.00" waitingCount="2" stopTime="214.00" timeLoss="48.26" rerouteNo="1" devices="tripinfo_0.10 routing_0.10" vType="DEFAULT_VEHTYPE" speedFactor="1.00" vaporized=""/>
    <tripinfo id="0.11" depart="40.00" departLane="a_0" departPos="5.10" departSpeed="0.00" departDelay="0.40" arrival="364.00" arrivalLane="f_0" arrivalPos="145.00" arrivalSpeed="13.21" duration="324.00" routeLength="675.74" waitingTime="17.00" waitingCount="2" stopTime="214.00" timeLoss="45.80" rerouteNo="1" devices="tripinfo_0.11 routing_0.11" vType="DEFAULT_VEHTYPE" speedFactor="1.00" vaporized=""/>
    <tripinfo id="0.12" depart="44.00" departLane="a_0" departPos="5.10" departSpeed="0.00" departDelay="0.80" arrival="366.00" arrivalLane="f_0" arrivalPos="145.00" arrivalSpeed="13.44" duration="322.00" routeLength="675.74" waitingTime="17.00" waitingCount="3" stopTime="206.00" timeLoss="46.51" rerouteNo="2" devices="tripinfo_0.12 routing_0.12" vType="DEFAULT_VEHTYPE" speedFactor="1.00" vaporized=""/>
    <tripinfo id="0.13" depart="47.00" departLane="a_0" departPos="5.10" departSpeed="0.00" departDelay="0.20" arrival="368.00" arrivalLane="f_0" arrivalPos="145.00" arrivalSpeed="13.23" duration="321.00" routeLength="675.74" waitingTime="17.00" waitingCount="3" stopTime="207.00" timeLoss="51.34" rerouteNo="2" devices="tripinfo_0.13 routing_0.13" vType="DEFAULT_VEHTYPE" speedFactor="1.00" vaporized=""/>
    <tripinfo id="0.14" depart="51.00" departLane="a_0" departPos="5.10" departSpeed="0.00" departDelay="0.60" arrival="371.00" arrivalLane="f_0" arrivalPos="145.00" arrivalSpeed="12.60" duration="320.00" routeLength="675.74" waitingTime="14.00" waitingCount="3" stopTime="204.00" timeLoss="51.54" rerouteNo="2" devices="tripinfo_0.14 routing_0.14" vType="DEFAULT_VEHTYPE" speedFactor="1.00" vaporized=""/>
    <tripinfo id="0.15" depart="54.00" departLane="a_0" departPos="5.10" departSpeed="0.00" departDelay="0.00" arrival="374.00" arrivalLane="f_0" arrivalPos="145.00" arrivalSpeed="13.15" duration="320.00" routeLength="675.74" waitingTime="13.00" waitingCount="3" stopTime="204.00" timeLoss="52.15" rerouteNo="2" devices="tripinfo_0.15 routing_0.15" vType="DEFAULT_VEHTYPE" speedFactor="1.00" vaporized=""/>
    <tripinfo id="0.16" depart="58.00" departLane="a_0" departPos="5.10" departSpeed="0.00" departDelay="0.40" arrival="377.00" arrivalLane="f_0" arrivalPos="145.00" arrivalSpeed="13.58" duration="319.00" routeLength="675.74" waitingTime="17.00" waitingCount="2" stopTime="210.00" timeLoss="44.80" rerouteNo="2" devices="tripinfo_0.16 routing_0.16" vType="DEFAULT_VEHTYPE" speedFactor="1.00" vaporized=""/>
    <tripinfo id="0.17" depart="62.00" departLane="a_0" departPos="5.10" departSpeed="0.00" departDelay="0.80" arrival="383.00" arrivalLane="f_0" arrivalPos="145.00" arrivalSpeed="13.61" duration="321.00" routeLength="675.74" waitingTime="14.00" waitingCount="2" stopTime="209.00" timeLoss="48.78" rerouteNo="2" devices="tripinfo_0.17 routing_0.17" vType="DEFAULT_VEHTYPE" speedFactor="1.00" vaporized=""/>
    <tripinfo id="0.18" depart="65.00" departLane="a_0" departPos="5.10" departSpeed="0.00" departDelay="0.20" arrival="385.00" arrivalLane="f_0" arrivalPos="145.00" arrivalSpeed="13.00" duration="320.00" routeLength="675.74" waitingTime="19.00" waitingCount="3" stopTime="200.00" timeLoss="51.30" rerouteNo="3" devices="tripinfo_0.18 routing_0.18" vType="DEFAULT_VEHTYPE" speedFactor="1.00" vaporized=""/>
    <tripinfo id="0.19" depart="69.00" departLane="a_0" departPos="5.10" departSpeed="0.00" departDelay="0.60" arrival="387.00" arrivalLane="f_0" arrivalPos="145.00" arrivalSpeed="12.88" duration="318.00" routeLength="675.74" waitingTime="21.00" waitingCount="2" stopTime="200.00" timeLoss="54.84" rerouteNo="3" devices="tripinfo_0.19 routing_0.19" vType="DEFAULT_VEHTYPE" speedFactor="1.00" vaporized=""/>
    <tripinfo id="0.20" depart="72.00" departLane="a_0" departPos="5.10" departSpeed="0.00" departDelay="0.00" arrival="393.00" arrivalLane="f_0" arrivalPos="145.00" arrivalSpeed="13.77" duration="321.00" routeLength="675.74" waitingTime="19.00" waitingCount="2" stopTime="200.00" timeLoss="57.40" rerouteNo="3" devices="tripinfo_0.20 routing_0.20" vType="DEFAULT_VEHTYPE" speedFactor="1.00" vaporized=""/>
    <tripinfo id="0.21" depart="76.00" departLane="a_0" departPos="5.10" departSpeed="0.00" departDelay="0.40" arrival="397.00" arrivalLane="f_0" arrivalPos="145.00" arrivalSpeed="13.44" duration="321.00" routeLength="675.74" waitingTime="16.00" waitingCount="2" stopTime="200.00" timeLoss="57.98" rerouteNo="3" devices="tripinfo_0.21 routing_0.21" vType="DEFAULT_VEHTYPE" speedFactor="1.00" vaporized=""/>
    <tripinfo id="0.22" depart="80.00" departLane="a_0" departPos="5.10" departSpeed="0.00" departDelay="0.80" arrival="403.00" arrivalLane="f_0" arrivalPos="145.00" arrivalSpeed="12.78" duration="323.00" routeLength="675.74" waitingTime="14.00" waitingCount="2" stopTime="200.00" timeLoss="58.46" rerouteNo="3" devices="tripinfo_0.22 routing_0.22" vType="DEFAULT_VEHTYPE" speedFactor="1.00" vaporized=""/>
    <tripinfo id="0.23" depart="83.00" departLane="a_0" departPos="5.10" departSpeed="0.00" departDelay="0.20" arrival="413.00" arrivalLane="f_0" arrivalPos="145.00" arrivalSpeed="13.63" duration="330.00" routeLength="675.74" waitingTime="12.00" waitingCount="3" stopTime="200.00" timeLoss="66.76" rerouteNo="3" devices="tripinfo_0.23 routing_0.23" vType="DEFAULT_VEHTYPE" speedFactor="1.00" vaporized=""/>
    <tripinfo id="0.30" depart="108.00" departLane="a_0" departPos="5.10" departSpeed="0.00" departDelay="0.00" arrival="469.00" arrivalLane="f_0" arrivalPos="145.00" arrivalSpeed="13.23" duration="361.00" routeLength="675.74" waitingTime="17.00" waitingCount="4" stopTime="200.00" timeLoss="94.39" rerouteNo="5" devices="tripinfo_0.30 routing_0.30" vType="DEFAULT_VEHTYPE" speedFactor="1.00" vaporized=""/>
    <tripinfo id="0.31" depart="112.00" departLane="a_0" departPos="5.10" departSpeed="0.00" departDelay="0.40" arrival="473.00" arrivalLane="f_0" arrivalPos="145.00" arrivalSpeed="13.23" duration="361.00" routeLength="675.74" waitingTime="22.00" waitingCount="4" stopTime="200.00" timeLoss="96.78" rerouteNo="4" devices="tripinfo_0.31 routing_0.31" vType="DEFAULT_VEHTYPE" speedFactor="1.00" vaporized=""/>
    <tripinfo id="0.32" depart="116.00" departLane="a_0" departPos="5.10" departSpeed="0.00" departDelay="0.80" arrival="478.00" arrivalLane="f_0" arrivalPos="145.00" arrivalSpeed="13.68" duration="362.00" routeLength="675.74" waitingTime="20.00" waitingCount="4" stopTime="200.00" timeLoss="97.68" rerouteNo="4" devices="tripinfo_0.32 routing_0.32" vType="DEFAULT_VEHTYPE" speedFactor="1.00" vaporized=""/>
    <tripinfo id="0.33" depart="119.00" departLane="a_0" departPos="5.10" departSpeed="0.00" departDelay="0.20" arrival="485.00" arrivalLane="f_0" arrivalPos="145.00" arrivalSpeed="13.29" duration="366.00" routeLength="675.74" waitingTime="23.00" waitingCount="6" stopTime="200.00" timeLoss="100.62" rerouteNo="4" devices="tripinfo_0.33 routing_0.33" vType="DEFAULT_VEHTYPE" speedFactor="1.00" vaporized=""/>
    <tripinfo id="0.34" depart="123.00" departLane="a_0" departPos="5.10" departSpeed="0.00" departDelay="0.60" arrival="491.00" arrivalLane="f_0" arrivalPos="145.00" arrivalSpeed="12.72" duration="368.00" routeLength="675.74" waitingTime="20.00" waitingCount="5" stopTime="200.00" timeLoss="103.99" rerouteNo="4" devices="tripinfo_0.34 routing_0.34" vType="DEFAULT_VEHTYPE" speedFactor="1.00" vaporized=""/>
    <tripinfo id="0.35" depart="126.00" departLane="a_0" departPos="5.10" departSpeed="0.00" departDelay="0.00" arrival="495.00" arrivalLane="f_0" arrivalPos="145.00" arrivalSpeed="13.82" duration="369.00" routeLength="675.74" waitingTime="17.00" waitingCount="3" stopTime="200.00" timeLoss="103.36" rerouteNo="4" devices="tripinfo_0.35 routing_0.35" vType="DEFAULT_VEHTYPE" speedFactor="1.00" vaporized=""/>
    <tripinfo id="0.36" depart="130.00" departLane="a_0" departPos="5.10" departSpeed="0.00" departDelay="0.40" arrival="532.00" arrivalLane="f_0" arrivalPos="145.00" arrivalSpeed="13.80" duration="402.00" routeLength="856.58" waitingTime="22.00" waitingCount="3" stopTime="200.00" timeLoss="110.51" rerouteNo="5" devices="tripinfo_0.36 routing_0.36" vType="DEFAULT_VEHTYPE" speedFactor="1.00" vaporized=""/>
    <tripinfo id="0.37" depart="134.00" departLane="a_0" departPos="5.10" departSpeed="0.00" departDelay="0.80" arrival="538.00" arrivalLane="f_0" arrivalPos="145.00" arrivalSpeed="13.63" duration="404.00" routeLength="856.58" waitingTime="22.00" waitingCount="5" stopTime="200.00" timeLoss="118.07" rerouteNo="5" devices="tripinfo_0.37 routing_0.37" vType="DEFAULT_VEHTYPE" speedFactor="1.00" vaporized=""/>
    <tripinfo id="0.38" depart="137.00" departLane="a_0" departPos="5.10" departSpeed="0.00" departDelay="0.20" arrival="544.00" arrivalLane="f_0" arrivalPos="145.00" arrivalSpeed="13.19" duration="407.00" routeLength="856.58" waitingTime="20.00" waitingCount="7" stopTime="200.00" timeLoss="120.88" rerouteNo="5" devices="tripinfo_0.38 routing_0.38" vType="DEFAULT_VEHTYPE" speedFactor="1.00" vaporized=""/>
    <tripinfo id="0.39" depart="141.00" departLane="a_0" departPos="5.10" departSpeed="0.00" departDelay="0.60" arrival="549.00" arrivalLane="f_0" arrivalPos="145.00" arrivalSpeed="13.28" duration="408.00" routeLength="856.58" waitingTime="12.00" waitingCount="4" stopTime="200.00" timeLoss="122.40" rerouteNo="5" devices="tripinfo_0.39 routing_0.39" vType="DEFAULT_VEHTYPE" speedFactor="1.00" vaporized=""/>
    <tripinfo id="0.40" depart="144.00" departLane="a_0" departPos="5.10" departSpeed="0.00" departDelay="0.00" arrival="553.00" arrivalLane="f_0" arrivalPos="145.00" arrivalSpeed="13.65" duration="409.00" routeLength="856.58" waitingTime="11.00" waitingCount="5" stopTime="200.00" timeLoss="122.26" rerouteNo="5" devices="tripinfo_0.40 routing_0.40" vType="DEFAULT_VEHTYPE" speedFactor="1.00" vaporized=""/>
    <tripinfo id="0.41" depart="148.00" departLane="a_0" departPos="5.10" departSpeed="0.00" departDelay="0.40" arrival="557.00" arrivalLane="f_0" arrivalPos="145.00" arrivalSpeed="13.57" duration="409.00" routeLength="856.58" waitingTime="10.00" waitingCount="4" stopTime="200.00" timeLoss="120.62" rerouteNo="5" devices="tripinfo_0.41 routing_0.41" vType="DEFAULT_VEHTYPE" speedFactor="1.00" vaporized=""/>
    <tripinfo id="0.24" depart="87.00" departLane="a_0" departPos="5.10" departSpeed="0.00" departDelay="0.60" arrival="566.00" arrivalLane="f_0" arrivalPos="145.00" arrivalSpeed="13.38" duration="479.00" routeLength="1037.42" waitingTime="34.00" waitingCount="6" stopTime="200.00" timeLoss="161.44" rerouteNo="10" devices="tripinfo_0.24 routing_0.24" vType="DEFAULT_VEHTYPE" speedFactor="1.00" vaporized=""/>
    <tripinfo id="0.25" depart="90.00" departLane="a_0" departPos="5.10" departSpeed="0.00" departDelay="0.00" arrival="572.00" arrivalLane="f_0" arrivalPos="145.00" arrivalSpeed="13.36" duration="482.00" routeLength="1037.42" waitingTime="29.00" waitingCount="5" stopTime="200.00" timeLoss="171.00" rerouteNo="10" devices="tripinfo_0.25 routing_0.25" vType="DEFAULT_VEHTYPE" speedFactor="1.00" vaporized=""/>
    <tripinfo id="0.26" depart="94.00" departLane="a_0" departPos="5.10" departSpeed="0.00" departDelay="0.40" arrival="576.00" arrivalLane="f_0" arrivalPos="145.00" arrivalSpeed="13.58" duration="482.00" routeLength="1037.42" waitingTime="27.00" waitingCount="5" stopTime="200.00" timeLoss="172.24" rerouteNo="10" devices="tripinfo_0.26 routing_0.26" vType="DEFAULT_VEHTYPE" speedFactor="1.00" vaporized=""/>
    <tripinfo id="0.27" depart="98.00" departLane="a_0" departPos="5.10" departSpeed="0.00" departDelay="0.80" arrival="580.00" arrivalLane="f_0" arrivalPos="145.00" arrivalSpeed="13.13" duration="482.00" routeLength="1037.42" waitingTime="25.00" waitingCount="5" stopTime="200.00" timeLoss="171.95" rerouteNo="10" devices="tripinfo_0.27 routing_0.27" vType="DEFAULT_VEHTYPE" speedFactor="1.00" vaporized=""/>
    <tripinfo id="0.28" depart="101.00" departLane="a_0" departPos="5.10" departSpeed="0.00" departDelay="0.20" arrival="587.00" arrivalLane="f_0" arrivalPos="145.00" arrivalSpeed="13.37" duration="486.00" routeLength="1037.42" waitingTime="24.00" waitingCount="5" stopTime="200.00" timeLoss="177.13" rerouteNo="10" devices="tripinfo_0.28 routing_0.28" vType="DEFAULT_VEHTYPE" speedFactor="1.00" vaporized=""/>
    <tripinfo id="0.29" depart="105.00" departLane="a_0" departPos="5.10" departSpeed="0.00" departDelay="0.60" arrival="591.00" arrivalLane="f_0" arrivalPos="145.00" arrivalSpeed="13.51" duration="486.00" routeLength="1037.42" waitingTime="22.00" waitingCount="5" stopTime="200.00" timeLoss="175.30" rerouteNo="10" devices="tripinfo_0.29 routing_0.29" vType="DEFAULT_VEHTYPE" speedFactor="1.00" vaporized=""/>
    <tripinfo id="0.42" depart="152.00" departLane="a_0" departPos="5.10" departSpeed="0.00" departDelay="0.80" arrival="610.00" arrivalLane="f_0" arrivalPos="145.00" arrivalSpeed="13.06" duration="458.00" routeLength="675.74" waitingTime="161.00" waitingCount="1" stopTime="200.00" timeLoss="194.71" rerouteNo="3" devices="tripinfo_0.42 routing_0.42" vType="DEFAULT_VEHTYPE" speedFactor="1.00" vaporized=""/>
    <tripinfo id="0.43" depart="155.00" departLane="a_0" departPos="5.10" departSpeed="0.00" departDelay="0.20" arrival="630.00" arrivalLane="f_0" arrivalPos="145.00" arrivalSpeed="13.34" duration="475.00" routeLength="675.74" waitingTime="174.00" waitingCount="2" stopTime="200.00" timeLoss="211.72" rerouteNo="3" devices="tripinfo_0.43 routing_0.43" vType="DEFAULT_VEHTYPE" speedFactor="1.00" vaporized=""/>
    <tripinfo id="0.44" depart="159.00" departLane="a_0" departPos="5.10" departSpeed="0.00" departDelay="0.60" arrival="639.00" arrivalLane="f_0" arrivalPos="145.00" arrivalSpeed="13.44" duration="480.00" routeLength="675.74" waitingTime="174.00" waitingCount="3" stopTime="200.00" timeLoss="215.97" rerouteNo="3" devices="tripinfo_0.44 routing_0.44" vType="DEFAULT_VEHTYPE" speedFactor="1.00" vaporized=""/>
    <tripinfo id="0.45" depart="162.00" departLane="a_0" departPos="5.10" departSpeed="0.00" departDelay="0.00" arrival="643.00" arrivalLane="f_0" arrivalPos="145.00" arrivalSpeed="13.51" duration="481.00" routeLength="675.74" waitingTime="172.00" waitingCount="2" stopTime="200.00" timeLoss="218.04" rerouteNo="3" devices="tripinfo_0.45 routing_0.45" vType="DEFAULT_VEHTYPE" speedFactor="1.00" vaporized=""/>
    <tripinfo id="0.46" depart="166.00" departLane="a_0" departPos="5.10" departSpeed="0.00" departDelay="0.40" arrival="648.00" arrivalLane="f_0" arrivalPos="145.00" arrivalSpeed="13.24" duration="482.00" routeLength="675.74" waitingTime="172.00" waitingCount="3" stopTime="200.00" timeLoss="217.49" rerouteNo="3" devices="tripinfo_0.46 routing_0.46" vType="DEFAULT_VEHTYPE" speedFactor="1.00" vaporized=""/>
    <tripinfo id="0.47" depart="170.00" departLane="a_0" departPos="5.10" departSpeed="0.00" departDelay="0.80" arrival="654.00" arrivalLane="f_0" arrivalPos="145.00" arrivalSpeed="12.81" duration="484.00" routeLength="675.74" waitingTime="171.00" waitingCount="3" stopTime="200.00" timeLoss="219.43" rerouteNo="3" devices="tripinfo_0.47 routing_0.47" vType="DEFAULT_VEHTYPE" speedFactor="1.00" vaporized=""/>
    <tripinfo id="0.48" depart="173.00" departLane="a_0" departPos="5.10" departSpeed="0.00" departDelay="0.20" arrival="694.00" arrivalLane="f_0" arrivalPos="145.00" arrivalSpeed="12.88" duration="521.00" routeLength="856.58" waitingTime="177.00" waitingCount="3" stopTime="200.00" timeLoss="228.93" rerouteNo="8" devices="tripinfo_0.48 routing_0.48" vType="DEFAULT_VEHTYPE" speedFactor="1.00" vaporized=""/>
    <tripinfo id="0.49" depart="177.00" departLane="a_0" departPos="5.10" departSpeed="0.00" departDelay="0.60" arrival="701.00" arrivalLane="f_0" arrivalPos="145.00" arrivalSpeed="13.59" duration="524.00" routeLength="856.58" waitingTime="173.00" waitingCount="4" stopTime="200.00" timeLoss="234.35" rerouteNo="8" devices="tripinfo_0.49 routing_0.49" vType="DEFAULT_VEHTYPE" speedFactor="1.00" vaporized=""/>
</tripinfos>
