<?xml version="1.0"?>

<!-- generated on 03/22/10 15:00:16 by SUMO sumo Version dev-SVN-r8502
<configuration>

    <input>
        <net-file value="net.net.xml"/>
        <additional-files value="input_routes.rou.xml,input_additional2.add.xml"/>
    </input>

    <output>
        <tripinfo-output value="tripinfos.xml"/>
    </output>

    <time>
        <begin value="0"/>
        <end value="1000"/>
    </time>

    <report>
        <no-duration-log value="true"/>
        <no-step-log value="true"/>
    </report>

</configuration>
-->

<tripinfos>
    <tripinfo id="0" depart="0.00" departLane="4/1to3/1_0" departPos="100.00" departSpeed="10.00" departDelay="0.00" arrival="108.00" arrivalLane="1/1to0/1_0" arrivalPos="8.50" arrivalSpeed="10.00" duration="108.00" routeLength="1080.00" waitSteps="0" rerouteNo="0" devices="" vtype="DEFAULT_VEHTYPE" vaporized=""/>
</tripinfos>
