<?xml version="1.0" encoding="UTF-8"?>

<!-- generated on Fri Nov 15 09:21:01 2013 by SUMO sumo Version dev-SVN-r15111
<?xml version="1.0" encoding="UTF-8"?>

<configuration xmlns:xsi="http://www.w3.org/2001/XMLSchema-instance" xsi:noNamespaceSchemaLocation="http://sumo-sim.org/xsd/sumoConfiguration.xsd">

    <input>
        <net-file value="net.net.xml"/>
        <route-files value="input_routes.rou.xml"/>
    </input>

    <output>
        <netstate-dump value="rawdump.xml"/>
    </output>

    <report>
        <no-duration-log value="true"/>
        <no-step-log value="true"/>
    </report>

</configuration>
-->

<netstate xmlns:xsi="http://www.w3.org/2001/XMLSchema-instance" xsi:noNamespaceSchemaLocation="http://sumo-sim.org/xsd/netstate_file.xsd">
    <timestep time="0.00">
        <edge id="1fi">
            <lane id="1fi_0">
                <vehicle id="ego" pos="400.00" speed="0.00"/>
            </lane>
            <lane id="1fi_1"/>
        </edge>
    </timestep>
    <timestep time="1.00">
        <edge id="1fi">
            <lane id="1fi_0">
                <vehicle id="ego" pos="402.60" speed="2.60"/>
            </lane>
            <lane id="1fi_1"/>
        </edge>
    </timestep>
    <timestep time="2.00">
        <edge id="1fi">
            <lane id="1fi_0"/>
            <lane id="1fi_1">
                <vehicle id="ego" pos="407.80" speed="5.20"/>
            </lane>
        </edge>
    </timestep>
    <timestep time="3.00">
        <edge id="1fi">
            <lane id="1fi_0"/>
            <lane id="1fi_1">
                <vehicle id="ego" pos="415.60" speed="7.80"/>
            </lane>
        </edge>
    </timestep>
    <timestep time="4.00">
        <edge id="1fi">
            <lane id="1fi_0"/>
            <lane id="1fi_1">
                <vehicle id="ego" pos="426.00" speed="10.40"/>
            </lane>
        </edge>
    </timestep>
    <timestep time="5.00">
        <edge id="1fi">
            <lane id="1fi_0"/>
            <lane id="1fi_1">
                <vehicle id="ego" pos="439.00" speed="13.00"/>
            </lane>
        </edge>
    </timestep>
    <timestep time="6.00">
        <edge id="1fi">
            <lane id="1fi_0"/>
            <lane id="1fi_1">
                <vehicle id="ego" pos="454.60" speed="15.60"/>
            </lane>
        </edge>
    </timestep>
    <timestep time="7.00">
        <edge id="1fi">
            <lane id="1fi_0"/>
            <lane id="1fi_1">
                <vehicle id="ego" pos="468.95" speed="14.35"/>
            </lane>
        </edge>
    </timestep>
    <timestep time="8.00">
        <edge id="1fi">
            <lane id="1fi_0"/>
            <lane id="1fi_1">
                <vehicle id="ego" pos="479.50" speed="10.54"/>
            </lane>
        </edge>
    </timestep>
    <timestep time="9.00">
        <edge id="1fi">
            <lane id="1fi_0"/>
            <lane id="1fi_1">
                <vehicle id="ego" pos="486.46" speed="6.96"/>
            </lane>
        </edge>
    </timestep>
    <timestep time="10.00">
        <edge id="1fi">
            <lane id="1fi_0"/>
            <lane id="1fi_1">
                <vehicle id="ego" pos="490.25" speed="3.79"/>
            </lane>
        </edge>
    </timestep>
    <timestep time="11.00">
        <edge id="1fi">
            <lane id="1fi_0"/>
            <lane id="1fi_1">
                <vehicle id="ego" pos="491.64" speed="1.38"/>
            </lane>
        </edge>
    </timestep>
    <timestep time="12.00">
        <edge id="1fi">
            <lane id="1fi_0"/>
            <lane id="1fi_1">
                <vehicle id="ego" pos="491.85" speed="0.21"/>
            </lane>
        </edge>
    </timestep>
    <timestep time="13.00">
        <edge id="1fi">
            <lane id="1fi_0"/>
            <lane id="1fi_1">
                <vehicle id="ego" pos="491.85" speed="0.00"/>
            </lane>
        </edge>
    </timestep>
    <timestep time="14.00">
        <edge id=":0_13">
            <lane id=":0_13_0">
                <vehicle id="ego" pos="2.50" speed="2.60"/>
            </lane>
        </edge>
    </timestep>
    <timestep time="15.00">
        <edge id=":0_13">
            <lane id=":0_13_0">
                <vehicle id="ego" pos="7.70" speed="5.20"/>
            </lane>
        </edge>
    </timestep>
    <timestep time="16.00">
        <edge id=":0_13">
            <lane id=":0_13_0">
                <vehicle id="ego" pos="15.50" speed="7.80"/>
            </lane>
        </edge>
    </timestep>
    <timestep time="17.00">
        <edge id="2o">
            <lane id="2o_0">
                <vehicle id="ego" pos="9.80" speed="10.40"/>
            </lane>
        </edge>
    </timestep>
    <timestep time="18.00">
        <edge id="2o">
            <lane id="2o_0">
                <vehicle id="ego" pos="22.80" speed="13.00"/>
            </lane>
        </edge>
    </timestep>
    <timestep time="19.00">
        <edge id="2o">
            <lane id="2o_0">
                <vehicle id="ego" pos="38.40" speed="15.60"/>
            </lane>
        </edge>
    </timestep>
    <timestep time="20.00">
        <edge id="2o">
            <lane id="2o_0">
                <vehicle id="ego" pos="54.40" speed="16.00"/>
            </lane>
        </edge>
    </timestep>
    <timestep time="21.00">
        <edge id="2o">
            <lane id="2o_0">
                <vehicle id="ego" pos="70.40" speed="16.00"/>
            </lane>
        </edge>
    </timestep>
    <timestep time="22.00">
        <edge id="2o">
            <lane id="2o_0">
                <vehicle id="ego" pos="86.40" speed="16.00"/>
            </lane>
        </edge>
    </timestep>
    <timestep time="23.00"/>
</netstate>
