<?xml version="1.0" encoding="UTF-8"?>

<!-- generated on Mon Jul 24 11:26:48 2017 by SUMO Version dev-SVN-r25299
<?xml version="1.0" encoding="UTF-8"?>

<configuration xmlns:xsi="http://www.w3.org/2001/XMLSchema-instance" xsi:noNamespaceSchemaLocation="http://sumo.dlr.de/xsd/sumoConfiguration.xsd">

    <input>
        <net-file value="motorway.net.xml"/>
        <route-files value="input_routes.rou.xml"/>
        <additional-files value="input_additional.add.xml"/>
    </input>

    <output>
        <lanechange-output value="lanechanges.xml"/>
    </output>

    <report>
        <verbose value="true"/>
        <xml-validation value="never"/>
        <duration-log.statistics value="true"/>
        <no-step-log value="true"/>
    </report>

</configuration>
-->

<meandata xmlns:xsi="http://www.w3.org/2001/XMLSchema-instance" xsi:noNamespaceSchemaLocation="http://sumo.dlr.de/xsd/meandata_file.xsd">
    <interval begin="0.00" end="1024.00" id="laneData">
        <edge id="beg">
            <lane id="beg_0" sampledSeconds="0.00" departed="0" arrived="0" entered="0" left="0" laneChangedFrom="0" laneChangedTo="0"/>
            <lane id="beg_1" sampledSeconds="0.00" departed="0" arrived="0" entered="0" left="0" laneChangedFrom="0" laneChangedTo="0"/>
            <lane id="beg_2" sampledSeconds="0.00" departed="0" arrived="0" entered="0" left="0" laneChangedFrom="0" laneChangedTo="0"/>
        </edge>
        <edge id="beg2">
            <lane id="beg2_0" sampledSeconds="2948.74" traveltime="129.91" overlapTraveltime="134.02" density="0.96" occupancy="0.47" waitingTime="75.00" speed="22.40" departed="374" arrived="0" entered="0" left="270" laneChangedFrom="104" laneChangedTo="0"/>
            <lane id="beg2_1" sampledSeconds="2396.32" traveltime="90.66" overlapTraveltime="90.96" density="0.78" occupancy="0.38" waitingTime="0.00" speed="33.00" departed="334" arrived="0" entered="0" left="438" laneChangedFrom="0" laneChangedTo="104"/>
        </edge>
        <edge id="end">
            <lane id="end_0" sampledSeconds="4121.32" traveltime="9.03" overlapTraveltime="9.20" density="20.43" occupancy="9.91" waitingTime="0.00" speed="21.96" departed="0" arrived="449" entered="449" left="0" laneChangedFrom="0" laneChangedTo="0"/>
            <lane id="end_1" sampledSeconds="2745.09" traveltime="5.94" overlapTraveltime="6.09" density="13.61" occupancy="6.65" waitingTime="0.00" speed="33.18" departed="0" arrived="452" entered="452" left="0" laneChangedFrom="0" laneChangedTo="0"/>
        </edge>
        <edge id="end2">
            <lane id="end2_0" sampledSeconds="0.00" departed="0" arrived="0" entered="0" left="0" laneChangedFrom="0" laneChangedTo="0"/>
        </edge>
        <edge id="end3">
            <lane id="end3_0" sampledSeconds="0.00" departed="0" arrived="0" entered="0" left="0" laneChangedFrom="0" laneChangedTo="0"/>
        </edge>
        <edge id="merge">
            <lane id="merge_0" sampledSeconds="1961.05" traveltime="14.99" overlapTraveltime="15.76" density="19.74" occupancy="9.75" waitingTime="676.00" speed="6.47" departed="0" arrived="0" entered="193" left="0" laneChangedFrom="193" laneChangedTo="0"/>
            <lane id="merge_1" sampledSeconds="3995.60" traveltime="11.81" overlapTraveltime="12.19" density="40.23" occupancy="19.28" waitingTime="263.75" speed="8.37" departed="0" arrived="0" entered="269" left="449" laneChangedFrom="14" laneChangedTo="194"/>
            <lane id="merge_2" sampledSeconds="1460.22" traveltime="3.10" overlapTraveltime="3.25" density="14.70" occupancy="6.99" waitingTime="0.00" speed="31.35" departed="0" arrived="0" entered="439" left="452" laneChangedFrom="1" laneChangedTo="14"/>
        </edge>
        <edge id="offRamp">
            <lane id="offRamp_0" sampledSeconds="0.00" departed="0" arrived="0" entered="0" left="0" laneChangedFrom="0" laneChangedTo="0"/>
        </edge>
        <edge id="onRamp">
            <lane id="onRamp_0" sampledSeconds="1885.69" traveltime="9.63" overlapTraveltime="9.94" density="6.09" occupancy="3.00" waitingTime="19.00" speed="30.92" departed="193" arrived="0" entered="0" left="193" laneChangedFrom="0" laneChangedTo="0"/>
        </edge>
    </interval>
</meandata>
