<?xml version="1.0" encoding="UTF-8"?>

<!-- generated on 2022-10-25 12:20:24 by Eclipse SUMO marouter Version v1_14_1+1904-bc14570
This data file and the accompanying materials
are made available under the terms of the Eclipse Public License v2.0
which accompanies this distribution, and is available at
http://www.eclipse.org/legal/epl-v20.html
This file may also be made available under the following Secondary
Licenses when the conditions for such availability set forth in the Eclipse
Public License 2.0 are satisfied: GNU General Public License, version 2
or later which is available at
https://www.gnu.org/licenses/old-licenses/gpl-2.0-standalone.html
SPDX-License-Identifier: EPL-2.0 OR GPL-2.0-or-later
<configuration xmlns:xsi="http://www.w3.org/2001/XMLSchema-instance" xsi:noNamespaceSchemaLocation="http://sumo.dlr.de/xsd/marouterConfiguration.xsd">

    <input>
        <net-file value="input_net.net.xml"/>
        <additional-files value="input_taz.taz.xml"/>
        <tazrelation-files value="input_od.xml"/>
    </input>

    <output>
        <output-file value="routes.rou.xml"/>
        <write-license value="true"/>
        <netload-output value="aggregated.xml"/>
    </output>

    <processing>
        <scale value="2"/>
    </processing>

    <report>
        <xml-validation value="never"/>
    </report>

</configuration>
-->

<meandata>
    <interval begin="0.00" end="3600.00">
        <edge id="beg" traveltime="17.99" speed="27.80" speedRelative="1.00" entered="0.00" density="0.00" laneDensity="0.00" flowCapacityRatio="0.00"/>
        <edge id="beg2left" traveltime="18.18" speed="27.67" speedRelative="1.00" entered="6.00" density="0.06" laneDensity="0.06" flowCapacityRatio="0.30"/>
        <edge id="end" traveltime="18.12" speed="27.59" speedRelative="0.99" entered="20.00" density="0.20" laneDensity="0.10" flowCapacityRatio="0.50"/>
        <edge id="left" traveltime="36.36" speed="27.67" speedRelative="1.00" entered="6.00" density="0.06" laneDensity="0.06" flowCapacityRatio="0.30"/>
        <edge id="left2end" traveltime="18.18" speed="27.67" speedRelative="1.00" entered="6.00" density="0.06" laneDensity="0.06" flowCapacityRatio="0.30"/>
        <edge id="middle" traveltime="72.72" speed="13.75" speedRelative="0.99" entered="14.00" density="0.28" laneDensity="0.28" flowCapacityRatio="0.70"/>
        <edge id="rend" traveltime="17.99" speed="27.80" speedRelative="1.00" entered="0.00" density="0.00" laneDensity="0.00" flowCapacityRatio="0.00"/>
    </interval>
</meandata>
