<?xml version="1.0" encoding="UTF-8"?>

<!-- generated on 2023-06-06 12:01:02 by Eclipse SUMO sumo Version v1_17_0+0345-9695ac54087
This data file and the accompanying materials
are made available under the terms of the Eclipse Public License v2.0
which accompanies this distribution, and is available at
http://www.eclipse.org/legal/epl-v20.html
This file may also be made available under the following Secondary
Licenses when the conditions for such availability set forth in the Eclipse
Public License 2.0 are satisfied: GNU General Public License, version 2
or later which is available at
https://www.gnu.org/licenses/old-licenses/gpl-2.0-standalone.html
SPDX-License-Identifier: EPL-2.0 OR GPL-2.0-or-later
<configuration xmlns:xsi="http://www.w3.org/2001/XMLSchema-instance" xsi:noNamespaceSchemaLocation="http://sumo.dlr.de/xsd/sumoConfiguration.xsd">

    <input>
        <net-file value="net.net.xml.gz"/>
        <route-files value="input_routes.rou.xml"/>
    </input>

    <output>
        <write-license value="true"/>
        <fcd-output value="fcd.xml"/>
        <tripinfo-output value="tripinfos.xml"/>
    </output>

    <processing>
        <default.speeddev value="0"/>
        <pedestrian.model value="jupedsim"/>
    </processing>

    <report>
        <xml-validation value="never"/>
        <no-step-log value="true"/>
    </report>

    <fcd_device>
        <device.fcd.period value="10"/>
    </fcd_device>

</configuration>
-->

<tripinfos xmlns:xsi="http://www.w3.org/2001/XMLSchema-instance" xsi:noNamespaceSchemaLocation="http://sumo.dlr.de/xsd/tripinfo_file.xsd">
    <personinfo id="11" depart="11.00" type="DEFAULT_PEDTYPE" speedFactor="1.00">
        <walk depart="11.00" departPos="0.00" arrival="220.00" arrivalPos="79.00" duration="209.00" routeLength="201.95" timeLoss="63.59" maxSpeed="1.39"/>
    </personinfo>
    <personinfo id="13" depart="13.00" type="DEFAULT_PEDTYPE" speedFactor="1.00">
        <walk depart="13.00" departPos="0.00" arrival="352.00" arrivalPos="105.38" duration="339.00" routeLength="341.04" timeLoss="93.45" maxSpeed="1.39"/>
    </personinfo>
    <personinfo id="2" depart="2.00" type="DEFAULT_PEDTYPE" speedFactor="1.00">
        <walk depart="2.00" departPos="0.00" arrival="447.00" arrivalPos="56.01" duration="445.00" routeLength="444.97" timeLoss="124.62" maxSpeed="1.39"/>
    </personinfo>
    <personinfo id="20" depart="20.00" type="DEFAULT_PEDTYPE" speedFactor="1.00">
        <walk depart="20.00" departPos="0.00" arrival="463.00" arrivalPos="91.12" duration="443.00" routeLength="430.74" timeLoss="132.86" maxSpeed="1.39"/>
    </personinfo>
    <personinfo id="6" depart="6.00" type="DEFAULT_PEDTYPE" speedFactor="1.00">
        <walk depart="6.00" departPos="0.00" arrival="474.00" arrivalPos="83.07" duration="468.00" routeLength="469.24" timeLoss="130.15" maxSpeed="1.39"/>
    </personinfo>
    <personinfo id="10" depart="10.00" type="DEFAULT_PEDTYPE" speedFactor="1.00">
        <walk depart="10.00" departPos="0.00" arrival="628.00" arrivalPos="78.30" duration="618.00" routeLength="631.87" timeLoss="163.05" maxSpeed="1.39"/>
    </personinfo>
    <personinfo id="18" depart="18.00" type="DEFAULT_PEDTYPE" speedFactor="1.00">
        <walk depart="18.00" departPos="0.00" arrival="641.00" arrivalPos="98.58" duration="623.00" routeLength="616.80" timeLoss="178.91" maxSpeed="1.39"/>
    </personinfo>
    <personinfo id="0" depart="0.00" type="DEFAULT_PEDTYPE" speedFactor="1.00">
        <walk depart="0.00" departPos="0.00" arrival="748.00" arrivalPos="38.17" duration="748.00" routeLength="720.00" timeLoss="229.60" maxSpeed="1.39"/>
    </personinfo>
    <personinfo id="15" depart="15.00" type="DEFAULT_PEDTYPE" speedFactor="1.00">
        <walk depart="15.00" departPos="0.00" arrival="846.00" arrivalPos="111.78" duration="831.00" routeLength="837.21" timeLoss="228.21" maxSpeed="1.39"/>
    </personinfo>
    <personinfo id="16" depart="16.00" type="DEFAULT_PEDTYPE" speedFactor="1.00">
        <walk depart="16.00" departPos="0.00" arrival="1011.00" arrivalPos="118.50" duration="995.00" routeLength="985.52" timeLoss="285.43" maxSpeed="1.39"/>
    </personinfo>
    <personinfo id="7" depart="7.00" type="DEFAULT_PEDTYPE" speedFactor="1.00">
        <walk depart="7.00" departPos="0.00" arrival="1039.00" arrivalPos="106.29" duration="1032.00" routeLength="1020.18" timeLoss="297.47" maxSpeed="1.39"/>
    </personinfo>
    <personinfo id="17" depart="17.00" type="DEFAULT_PEDTYPE" speedFactor="1.00">
        <walk depart="17.00" departPos="0.00" arrival="1174.00" arrivalPos="107.02" duration="1157.00" routeLength="1143.59" timeLoss="333.62" maxSpeed="1.39"/>
    </personinfo>
    <personinfo id="19" depart="19.00" type="DEFAULT_PEDTYPE" speedFactor="1.00">
        <walk depart="19.00" departPos="0.00" arrival="1222.00" arrivalPos="107.11" duration="1203.00" routeLength="1158.40" timeLoss="368.95" maxSpeed="1.39"/>
    </personinfo>
    <personinfo id="1" depart="1.00" type="DEFAULT_PEDTYPE" speedFactor="1.00">
        <walk depart="1.00" departPos="0.00" arrival="1309.00" arrivalPos="46.08" duration="1308.00" routeLength="1309.32" timeLoss="365.29" maxSpeed="1.39"/>
    </personinfo>
    <personinfo id="9" depart="9.00" type="DEFAULT_PEDTYPE" speedFactor="1.00">
        <walk depart="9.00" departPos="0.00" arrival="1319.00" arrivalPos="102.69" duration="1310.00" routeLength="1311.96" timeLoss="365.39" maxSpeed="1.39"/>
    </personinfo>
    <personinfo id="3" depart="3.00" type="DEFAULT_PEDTYPE" speedFactor="1.00">
        <walk depart="3.00" departPos="0.00" arrival="1526.00" arrivalPos="70.38" duration="1523.00" routeLength="1531.08" timeLoss="420.62" maxSpeed="1.39"/>
    </personinfo>
    <personinfo id="12" depart="12.00" type="DEFAULT_PEDTYPE" speedFactor="1.00">
        <walk depart="12.00" departPos="0.00" arrival="1642.00" arrivalPos="86.58" duration="1630.00" routeLength="1341.32" timeLoss="664.25" maxSpeed="1.39"/>
    </personinfo>
    <personinfo id="5" depart="5.00" type="DEFAULT_PEDTYPE" speedFactor="1.00">
        <walk depart="5.00" departPos="0.00" arrival="1892.00" arrivalPos="71.81" duration="1887.00" routeLength="1892.63" timeLoss="524.31" maxSpeed="1.39"/>
    </personinfo>
    <personinfo id="8" depart="8.00" type="DEFAULT_PEDTYPE" speedFactor="1.00">
        <walk depart="8.00" departPos="0.00" arrival="2136.00" arrivalPos="116.30" duration="2128.00" routeLength="2122.61" timeLoss="599.72" maxSpeed="1.39"/>
    </personinfo>
    <personinfo id="4" depart="4.00" type="DEFAULT_PEDTYPE" speedFactor="1.00">
        <walk depart="4.00" departPos="0.00" arrival="2241.00" arrivalPos="113.83" duration="2237.00" routeLength="2227.18" timeLoss="633.43" maxSpeed="1.39"/>
    </personinfo>
    <personinfo id="14" depart="14.00" type="DEFAULT_PEDTYPE" speedFactor="1.00">
        <walk depart="14.00" departPos="0.00" arrival="2463.00" arrivalPos="107.88" duration="2449.00" routeLength="2428.71" timeLoss="700.33" maxSpeed="1.39"/>
    </personinfo>
</tripinfos>
