<?xml version="1.0" encoding="UTF-8"?>

<!-- generated on Wed Jun 14 13:28:51 2017 by SUMO Version dev-SVN-r24648
<?xml version="1.0" encoding="UTF-8"?>

<configuration xmlns:xsi="http://www.w3.org/2001/XMLSchema-instance" xsi:noNamespaceSchemaLocation="http://sumo.dlr.de/xsd/sumoConfiguration.xsd">

    <input>
        <net-file value="three_split.net.xml"/>
        <additional-files value="input_additional.add.xml"/>
    </input>

    <time>
        <end value="7201"/>
    </time>

    <report>
        <xml-validation value="never"/>
        <duration-log.disable value="true"/>
        <no-step-log value="true"/>
    </report>

    <mesoscopic>
        <mesosim value="true"/>
    </mesoscopic>

</configuration>
-->

<meandata xmlns:xsi="http://www.w3.org/2001/XMLSchema-instance" xsi:noNamespaceSchemaLocation="http://sumo.dlr.de/xsd/meandata_file.xsd">
    <interval begin="0.00" end="1800.00" id="expect_1250_vehs_0">
        <edge id="beg" sampledSeconds="22155.46" traveltime="17.82" overlapTraveltime="18.00" density="24.62" occupancy="12.31" waitingTime="0.00" speed="28.06" departed="1250" arrived="0" entered="0" left="1237" laneChangedFrom="0" laneChangedTo="0"/>
        <edge id="beg2left" sampledSeconds="0.00" departed="0" arrived="0" entered="0" left="0" laneChangedFrom="0" laneChangedTo="0"/>
        <edge id="beg2right" sampledSeconds="0.00" departed="0" arrived="0" entered="0" left="0" laneChangedFrom="0" laneChangedTo="0"/>
        <edge id="end" sampledSeconds="23027.47" traveltime="19.13" overlapTraveltime="19.32" density="25.59" occupancy="12.79" waitingTime="0.00" speed="26.13" departed="0" arrived="0" entered="1211" left="1196" laneChangedFrom="0" laneChangedTo="0"/>
        <edge id="left" sampledSeconds="0.00" departed="0" arrived="0" entered="0" left="0" laneChangedFrom="0" laneChangedTo="0"/>
        <edge id="left2end" sampledSeconds="0.00" departed="0" arrived="0" entered="0" left="0" laneChangedFrom="0" laneChangedTo="0"/>
        <edge id="middle" sampledSeconds="46226.97" traveltime="37.75" overlapTraveltime="37.94" density="25.68" occupancy="12.84" waitingTime="0.00" speed="26.49" departed="0" arrived="0" entered="1237" left="1211" laneChangedFrom="0" laneChangedTo="0"/>
        <edge id="rend" sampledSeconds="22932.63" traveltime="19.29" overlapTraveltime="19.48" density="25.48" occupancy="12.74" waitingTime="0.00" speed="25.92" departed="0" arrived="1182" entered="1196" left="0" laneChangedFrom="0" laneChangedTo="0"/>
        <edge id="right" sampledSeconds="0.00" departed="0" arrived="0" entered="0" left="0" laneChangedFrom="0" laneChangedTo="0"/>
        <edge id="right2end" sampledSeconds="0.00" departed="0" arrived="0" entered="0" left="0" laneChangedFrom="0" laneChangedTo="0"/>
    </interval>
    <interval begin="1800.00" end="3600.00" id="expect_1250_vehs_3600">
        <edge id="beg" sampledSeconds="41623.67" traveltime="33.44" overlapTraveltime="33.77" density="46.25" occupancy="23.12" waitingTime="0.00" speed="14.95" departed="1250" arrived="0" entered="0" left="1240" laneChangedFrom="0" laneChangedTo="0"/>
        <edge id="beg2left" sampledSeconds="0.00" departed="0" arrived="0" entered="0" left="0" laneChangedFrom="0" laneChangedTo="0"/>
        <edge id="beg2right" sampledSeconds="0.00" departed="0" arrived="0" entered="0" left="0" laneChangedFrom="0" laneChangedTo="0"/>
        <edge id="end" sampledSeconds="23893.86" traveltime="19.27" overlapTraveltime="19.46" density="26.55" occupancy="13.27" waitingTime="0.00" speed="25.95" departed="0" arrived="0" entered="1239" left="1241" laneChangedFrom="0" laneChangedTo="0"/>
        <edge id="left" sampledSeconds="0.00" departed="0" arrived="0" entered="0" left="0" laneChangedFrom="0" laneChangedTo="0"/>
        <edge id="left2end" sampledSeconds="0.00" departed="0" arrived="0" entered="0" left="0" laneChangedFrom="0" laneChangedTo="0"/>
        <edge id="middle" sampledSeconds="47026.95" traveltime="37.95" overlapTraveltime="38.14" density="26.13" occupancy="13.06" waitingTime="0.00" speed="26.35" departed="0" arrived="0" entered="1240" left="1239" laneChangedFrom="0" laneChangedTo="0"/>
        <edge id="rend" sampledSeconds="24122.20" traveltime="19.43" overlapTraveltime="19.63" density="26.80" occupancy="13.40" waitingTime="0.00" speed="25.73" departed="0" arrived="1241" entered="1241" left="0" laneChangedFrom="0" laneChangedTo="0"/>
        <edge id="right" sampledSeconds="0.00" departed="0" arrived="0" entered="0" left="0" laneChangedFrom="0" laneChangedTo="0"/>
        <edge id="right2end" sampledSeconds="0.00" departed="0" arrived="0" entered="0" left="0" laneChangedFrom="0" laneChangedTo="0"/>
    </interval>
    <interval begin="3600.00" end="5400.00" id="expect_1250_vehs_7200">
        <edge id="beg" sampledSeconds="62759.03" traveltime="50.48" overlapTraveltime="50.98" density="69.73" occupancy="34.87" waitingTime="0.00" speed="9.91" departed="1250" arrived="0" entered="0" left="1236" laneChangedFrom="0" laneChangedTo="0"/>
        <edge id="beg2left" sampledSeconds="0.00" departed="0" arrived="0" entered="0" left="0" laneChangedFrom="0" laneChangedTo="0"/>
        <edge id="beg2right" sampledSeconds="0.00" departed="0" arrived="0" entered="0" left="0" laneChangedFrom="0" laneChangedTo="0"/>
        <edge id="end" sampledSeconds="23624.68" traveltime="19.03" overlapTraveltime="19.22" density="26.25" occupancy="13.12" waitingTime="0.00" speed="26.27" departed="0" arrived="0" entered="1241" left="1242" laneChangedFrom="0" laneChangedTo="0"/>
        <edge id="left" sampledSeconds="0.00" departed="0" arrived="0" entered="0" left="0" laneChangedFrom="0" laneChangedTo="0"/>
        <edge id="left2end" sampledSeconds="0.00" departed="0" arrived="0" entered="0" left="0" laneChangedFrom="0" laneChangedTo="0"/>
        <edge id="middle" sampledSeconds="46438.87" traveltime="37.46" overlapTraveltime="37.65" density="25.80" occupancy="12.90" waitingTime="0.00" speed="26.69" departed="0" arrived="0" entered="1236" left="1241" laneChangedFrom="0" laneChangedTo="0"/>
        <edge id="rend" sampledSeconds="23781.34" traveltime="19.15" overlapTraveltime="19.34" density="26.42" occupancy="13.21" waitingTime="0.00" speed="26.11" departed="0" arrived="1243" entered="1242" left="0" laneChangedFrom="0" laneChangedTo="0"/>
        <edge id="right" sampledSeconds="0.00" departed="0" arrived="0" entered="0" left="0" laneChangedFrom="0" laneChangedTo="0"/>
        <edge id="right2end" sampledSeconds="0.00" departed="0" arrived="0" entered="0" left="0" laneChangedFrom="0" laneChangedTo="0"/>
    </interval>
    <interval begin="5400.00" end="7200.00" id="expect_1250_vehs_10800">
        <edge id="beg" sampledSeconds="107776.59" traveltime="97.38" overlapTraveltime="98.36" density="119.75" occupancy="59.88" waitingTime="0.00" speed="5.13" departed="1119" arrived="0" entered="0" left="1096" laneChangedFrom="0" laneChangedTo="0"/>
        <edge id="beg2left" sampledSeconds="0.00" departed="0" arrived="0" entered="0" left="0" laneChangedFrom="0" laneChangedTo="0"/>
        <edge id="beg2right" sampledSeconds="0.00" departed="0" arrived="0" entered="0" left="0" laneChangedFrom="0" laneChangedTo="0"/>
        <edge id="end" sampledSeconds="19910.88" traveltime="18.10" overlapTraveltime="18.28" density="22.12" occupancy="11.06" waitingTime="0.00" speed="27.62" departed="0" arrived="0" entered="1100" left="1100" laneChangedFrom="0" laneChangedTo="0"/>
        <edge id="left" sampledSeconds="0.00" departed="0" arrived="0" entered="0" left="0" laneChangedFrom="0" laneChangedTo="0"/>
        <edge id="left2end" sampledSeconds="0.00" departed="0" arrived="0" entered="0" left="0" laneChangedFrom="0" laneChangedTo="0"/>
        <edge id="middle" sampledSeconds="39219.42" traveltime="35.80" overlapTraveltime="35.98" density="21.79" occupancy="10.89" waitingTime="0.00" speed="27.93" departed="0" arrived="0" entered="1096" left="1100" laneChangedFrom="0" laneChangedTo="0"/>
        <edge id="rend" sampledSeconds="19964.17" traveltime="18.14" overlapTraveltime="18.32" density="22.18" occupancy="11.09" waitingTime="0.00" speed="27.57" departed="0" arrived="1100" entered="1100" left="0" laneChangedFrom="0" laneChangedTo="0"/>
        <edge id="right" sampledSeconds="0.00" departed="0" arrived="0" entered="0" left="0" laneChangedFrom="0" laneChangedTo="0"/>
        <edge id="right2end" sampledSeconds="0.00" departed="0" arrived="0" entered="0" left="0" laneChangedFrom="0" laneChangedTo="0"/>
    </interval>
</meandata>
