<?xml version="1.0" encoding="UTF-8"?>

<!-- generated on 2025-11-18T16:33:45.078682+01:00 by Eclipse SUMO sumo v1_25_0+0086-b1f02afa5bd
This data file and the accompanying materials
are made available under the terms of the Eclipse Public License v2.0
which accompanies this distribution, and is available at
http://www.eclipse.org/legal/epl-v20.html
This file may also be made available under the following Secondary
Licenses when the conditions for such availability set forth in the Eclipse
Public License 2.0 are satisfied: GNU General Public License, version 2
or later which is available at
https://www.gnu.org/licenses/old-licenses/gpl-2.0-standalone.html
SPDX-License-Identifier: EPL-2.0 OR GPL-2.0-or-later
<sumoConfiguration xmlns:xsi="http://www.w3.org/2001/XMLSchema-instance" xsi:noNamespaceSchemaLocation="http://sumo.dlr.de/xsd/sumoConfiguration.xsd">

    <input>
        <net-file value="net.net.xml"/>
        <additional-files value="input_routes.rou.xml,input_additional.add.xml"/>
    </input>

    <output>
        <write-license value="true"/>
    </output>

    <time>
        <begin value="0"/>
        <end value="150"/>
    </time>

    <processing>
        <default.speeddev value="0"/>
    </processing>

    <report>
        <xml-validation value="never"/>
        <duration-log.disable value="true"/>
        <no-step-log value="true"/>
    </report>

</sumoConfiguration>
-->

<meandata xmlns:xsi="http://www.w3.org/2001/XMLSchema-instance" xsi:noNamespaceSchemaLocation="http://sumo.dlr.de/xsd/meandata_file.xsd">
    <interval begin="0.00" end="15.00" id="dump_15">
        <edge id="1si">
            <lane id="1si_0" sampledSeconds="3.00" traveltime="32.53" overlapTraveltime="32.92" density="0.80" overlapDensity="0.80" laneDensity="0.80" occupancy="0.24" waitingTime="0.00" timeLoss="0.19" speed="7.69" speedRelative="0.55" departed="2" arrived="0" entered="0" left="0" laneChangedFrom="2" laneChangedTo="0" flow="22.13"/>
            <lane id="1si_1" sampledSeconds="10.00" traveltime="46.75" overlapTraveltime="47.31" density="2.67" overlapDensity="2.67" laneDensity="2.67" occupancy="0.80" waitingTime="0.00" timeLoss="0.15" speed="5.35" speedRelative="0.38" departed="0" arrived="0" entered="0" left="0" laneChangedFrom="2" laneChangedTo="2" flow="51.33"/>
            <lane id="1si_2" sampledSeconds="10.00" traveltime="46.72" overlapTraveltime="47.28" density="2.67" overlapDensity="2.67" laneDensity="2.67" occupancy="0.80" waitingTime="0.00" timeLoss="2.65" speed="5.35" speedRelative="0.39" departed="0" arrived="0" entered="0" left="0" laneChangedFrom="0" laneChangedTo="2" flow="51.37"/>
        </edge>
    </interval>
    <interval begin="15.00" end="30.00" id="dump_15">
        <edge id="1si">
            <lane id="1si_2" sampledSeconds="30.00" traveltime="50.01" overlapTraveltime="50.61" density="8.00" overlapDensity="8.00" laneDensity="8.00" occupancy="2.40" waitingTime="0.00" timeLoss="7.50" speed="5.00" speedRelative="0.36" departed="0" arrived="0" entered="0" left="0" laneChangedFrom="0" laneChangedTo="0" flow="143.97"/>
        </edge>
    </interval>
    <interval begin="30.00" end="45.00" id="dump_15">
        <edge id="1si">
            <lane id="1si_2" sampledSeconds="30.00" traveltime="577.01" overlapTraveltime="583.94" density="8.00" overlapDensity="8.00" laneDensity="8.00" occupancy="2.40" waitingTime="27.00" timeLoss="28.30" speed="0.43" speedRelative="0.03" departed="0" arrived="0" entered="0" left="0" laneChangedFrom="0" laneChangedTo="0" flow="12.48"/>
        </edge>
    </interval>
    <interval begin="45.00" end="60.00" id="dump_15">
        <edge id="1si">
            <lane id="1si_2" sampledSeconds="7.92" traveltime="196.39" overlapTraveltime="154.05" density="1.47" overlapDensity="2.11" laneDensity="1.47" occupancy="0.54" waitingTime="1.00" timeLoss="6.22" speed="1.64" speedRelative="0.12" departed="0" arrived="0" entered="0" left="2" laneChangedFrom="0" laneChangedTo="0" flow="6.72"/>
        </edge>
        <edge id="4o">
            <lane id="4o_0" sampledSeconds="24.50" traveltime="109.76" overlapTraveltime="110.42" density="3.27" overlapDensity="3.27" laneDensity="3.27" occupancy="0.93" waitingTime="0.00" timeLoss="7.26" speed="4.56" speedRelative="0.41" departed="0" arrived="0" entered="2" left="0" laneChangedFrom="0" laneChangedTo="0" flow="53.57"/>
        </edge>
    </interval>
    <interval begin="60.00" end="75.00" id="dump_15">
        <edge id="4o">
            <lane id="4o_0" sampledSeconds="30.00" traveltime="100.00" overlapTraveltime="100.60" density="4.00" overlapDensity="4.00" laneDensity="4.00" occupancy="1.20" waitingTime="0.00" timeLoss="7.50" speed="5.00" speedRelative="0.45" departed="0" arrived="0" entered="0" left="0" laneChangedFrom="0" laneChangedTo="0" flow="72.00"/>
        </edge>
    </interval>
    <interval begin="75.00" end="90.00" id="dump_15">
        <edge id="4o">
            <lane id="4o_0" sampledSeconds="30.00" traveltime="100.00" overlapTraveltime="100.60" density="4.00" overlapDensity="4.00" laneDensity="4.00" occupancy="1.20" waitingTime="0.00" timeLoss="7.50" speed="5.00" speedRelative="0.45" departed="0" arrived="0" entered="0" left="0" laneChangedFrom="0" laneChangedTo="0" flow="72.00"/>
        </edge>
    </interval>
    <interval begin="90.00" end="105.00" id="dump_15">
        <edge id="4o">
            <lane id="4o_0" sampledSeconds="30.00" traveltime="100.00" overlapTraveltime="100.60" density="4.00" overlapDensity="4.00" laneDensity="4.00" occupancy="1.20" waitingTime="0.00" timeLoss="7.50" speed="5.00" speedRelative="0.45" departed="0" arrived="0" entered="0" left="0" laneChangedFrom="0" laneChangedTo="0" flow="72.00"/>
        </edge>
    </interval>
    <interval begin="105.00" end="120.00" id="dump_15">
        <edge id="4o">
            <lane id="4o_0" sampledSeconds="30.00" traveltime="100.00" overlapTraveltime="100.60" density="4.00" overlapDensity="4.00" laneDensity="4.00" occupancy="1.20" waitingTime="0.00" timeLoss="7.50" speed="5.00" speedRelative="0.45" departed="0" arrived="0" entered="0" left="0" laneChangedFrom="0" laneChangedTo="0" flow="72.00"/>
        </edge>
    </interval>
    <interval begin="120.00" end="135.00" id="dump_15">
        <edge id="4o">
            <lane id="4o_0" sampledSeconds="30.00" traveltime="100.00" overlapTraveltime="100.60" density="4.00" overlapDensity="4.00" laneDensity="4.00" occupancy="1.20" waitingTime="0.00" timeLoss="7.50" speed="5.00" speedRelative="0.45" departed="0" arrived="0" entered="0" left="0" laneChangedFrom="0" laneChangedTo="0" flow="72.00"/>
        </edge>
    </interval>
    <interval begin="135.00" end="150.00" id="dump_15">
        <edge id="4o">
            <lane id="4o_0" sampledSeconds="27.97" traveltime="98.83" overlapTraveltime="98.94" density="3.65" overlapDensity="3.73" laneDensity="3.65" occupancy="1.11" waitingTime="0.00" timeLoss="7.25" speed="5.08" speedRelative="0.46" departed="0" arrived="2" entered="0" left="0" laneChangedFrom="0" laneChangedTo="0" flow="66.43"/>
        </edge>
    </interval>
</meandata>
