<?xml version="1.0" encoding="UTF-8"?>

<!-- generated on Wed Oct 28 12:42:38 2015 by SUMO Version dev-SVN-r19189
<?xml version="1.0" encoding="UTF-8"?>

<configuration xmlns:xsi="http://www.w3.org/2001/XMLSchema-instance" xsi:noNamespaceSchemaLocation="http://sumo.dlr.de/xsd/sumoConfiguration.xsd">

    <input>
        <net-file value="net.net.xml"/>
        <load-state value="input_state.xml"/>
    </input>

    <output>
        <vehroute-output value="vehroutes.xml"/>
    </output>

    <report>
        <verbose value="true"/>
        <xml-validation value="never"/>
        <duration-log.disable value="true"/>
        <no-step-log value="true"/>
    </report>

</configuration>
-->

<routes xmlns:xsi="http://www.w3.org/2001/XMLSchema-instance" xsi:noNamespaceSchemaLocation="http://sumo.dlr.de/xsd/routes_file.xsd">
    <vehicle id="v0" type="type1" depart="0.00" arrival="26.00">
        <route edges="beg middle end"/>
    </vehicle>

    <vehicle id="v1" type="type2" depart="4.00" arrival="30.00">
        <route edges="beg middle end"/>
    </vehicle>

</routes>
