<?xml version="1.0" encoding="UTF-8"?>

<!-- generated on Thu Aug 29 15:15:56 2019 by Eclipse SUMO Version v1_3_1+0052-f878b26
This data file and the accompanying materials
are made available under the terms of the Eclipse Public License v2.0
which accompanies this distribution, and is available at
http://www.eclipse.org/legal/epl-v20.html
SPDX-License-Identifier: EPL-2.0
<configuration xmlns:xsi="http://www.w3.org/2001/XMLSchema-instance" xsi:noNamespaceSchemaLocation="http://sumo.dlr.de/xsd/sumoConfiguration.xsd">

    <input>
        <net-file value="net.net.xml"/>
        <route-files value="input_routes.rou.xml"/>
    </input>

    <output>
        <write-license value="true"/>
        <tripinfo-output value="tripinfos.xml"/>
        <vehroute-output value="vehroutes.xml"/>
    </output>

    <processing>
        <default.speeddev value="0"/>
    </processing>

    <routing>
        <routing-algorithm value="astar"/>
        <device.rerouting.probability value="1"/>
        <device.rerouting.period value="240"/>
        <device.rerouting.adaptation-interval value="1"/>
    </routing>

    <report>
        <xml-validation value="never"/>
        <no-step-log value="true"/>
    </report>

</configuration>
-->

<tripinfos xmlns:xsi="http://www.w3.org/2001/XMLSchema-instance" xsi:noNamespaceSchemaLocation="http://sumo.dlr.de/xsd/tripinfo_file.xsd">
    <tripinfo id="type1.0" depart="0.00" departLane="gneE0_0" departPos="5.10" departSpeed="0.00" departDelay="0.00" arrival="116.00" arrivalLane="gneE1_1" arrivalPos="100.00" arrivalSpeed="13.89" duration="116.00" routeLength="996.75" waitingTime="27.00" waitingCount="2" stopTime="0.00" timeLoss="43.49" rerouteNo="1" devices="vehroute_type1.0 tripinfo_type1.0 routing_type1.0" vType="car" speedFactor="1.00" vaporized=""/>
    <tripinfo id="type1.1" depart="3.00" departLane="gneE0_0" departPos="5.10" departSpeed="0.00" departDelay="2.00" arrival="117.00" arrivalLane="gneE1_1" arrivalPos="100.00" arrivalSpeed="13.89" duration="114.00" routeLength="996.75" waitingTime="26.00" waitingCount="2" stopTime="0.00" timeLoss="41.92" rerouteNo="1" devices="vehroute_type1.1 tripinfo_type1.1 routing_type1.1" vType="car" speedFactor="1.00" vaporized=""/>
    <tripinfo id="type1.2" depart="5.00" departLane="gneE0_0" departPos="5.10" departSpeed="0.00" departDelay="3.00" arrival="119.00" arrivalLane="gneE1_1" arrivalPos="100.00" arrivalSpeed="13.89" duration="114.00" routeLength="996.75" waitingTime="25.00" waitingCount="2" stopTime="0.00" timeLoss="41.35" rerouteNo="1" devices="vehroute_type1.2 tripinfo_type1.2 routing_type1.2" vType="car" speedFactor="1.00" vaporized=""/>
    <tripinfo id="type1.3" depart="7.00" departLane="gneE0_0" departPos="5.10" departSpeed="0.00" departDelay="4.00" arrival="134.00" arrivalLane="gneE1_1" arrivalPos="100.00" arrivalSpeed="13.89" duration="127.00" routeLength="996.75" waitingTime="42.00" waitingCount="1" stopTime="0.00" timeLoss="54.37" rerouteNo="1" devices="vehroute_type1.3 tripinfo_type1.3 routing_type1.3" vType="car" speedFactor="1.00" vaporized=""/>
    <tripinfo id="type1.4" depart="9.00" departLane="gneE0_0" departPos="5.10" departSpeed="0.00" departDelay="5.00" arrival="185.00" arrivalLane="gneE1_1" arrivalPos="100.00" arrivalSpeed="13.89" duration="176.00" routeLength="996.75" waitingTime="87.00" waitingCount="2" stopTime="0.00" timeLoss="103.88" rerouteNo="1" devices="vehroute_type1.4 tripinfo_type1.4 routing_type1.4" vType="car" speedFactor="1.00" vaporized=""/>
    <tripinfo id="type1.5" depart="11.00" departLane="gneE0_0" departPos="5.10" departSpeed="0.00" departDelay="6.00" arrival="187.00" arrivalLane="gneE1_1" arrivalPos="100.00" arrivalSpeed="13.89" duration="176.00" routeLength="996.75" waitingTime="87.00" waitingCount="2" stopTime="0.00" timeLoss="103.31" rerouteNo="1" devices="vehroute_type1.5 tripinfo_type1.5 routing_type1.5" vType="car" speedFactor="1.00" vaporized=""/>
    <tripinfo id="type1.6" depart="13.00" departLane="gneE0_0" departPos="5.10" departSpeed="0.00" departDelay="7.00" arrival="188.00" arrivalLane="gneE1_1" arrivalPos="100.00" arrivalSpeed="13.89" duration="175.00" routeLength="996.75" waitingTime="86.00" waitingCount="2" stopTime="0.00" timeLoss="102.74" rerouteNo="1" devices="vehroute_type1.6 tripinfo_type1.6 routing_type1.6" vType="car" speedFactor="1.00" vaporized=""/>
    <tripinfo id="type1.7" depart="15.00" departLane="gneE0_0" departPos="5.10" departSpeed="0.00" departDelay="8.00" arrival="189.00" arrivalLane="gneE1_1" arrivalPos="100.00" arrivalSpeed="13.89" duration="174.00" routeLength="996.75" waitingTime="83.00" waitingCount="2" stopTime="0.00" timeLoss="102.17" rerouteNo="1" devices="vehroute_type1.7 tripinfo_type1.7 routing_type1.7" vType="car" speedFactor="1.00" vaporized=""/>
    <tripinfo id="type1.8" depart="17.00" departLane="gneE0_0" departPos="5.10" departSpeed="0.00" departDelay="9.00" arrival="191.00" arrivalLane="gneE1_1" arrivalPos="100.00" arrivalSpeed="13.89" duration="174.00" routeLength="996.75" waitingTime="82.00" waitingCount="2" stopTime="0.00" timeLoss="101.61" rerouteNo="1" devices="vehroute_type1.8 tripinfo_type1.8 routing_type1.8" vType="car" speedFactor="1.00" vaporized=""/>
    <tripinfo id="type1.9" depart="18.00" departLane="gneE0_0" departPos="5.10" departSpeed="0.00" departDelay="9.00" arrival="192.00" arrivalLane="gneE1_1" arrivalPos="100.00" arrivalSpeed="13.89" duration="174.00" routeLength="996.75" waitingTime="80.00" waitingCount="2" stopTime="0.00" timeLoss="102.04" rerouteNo="1" devices="vehroute_type1.9 tripinfo_type1.9 routing_type1.9" vType="car" speedFactor="1.00" vaporized=""/>
    <tripinfo id="type1.10" depart="21.00" departLane="gneE0_0" departPos="5.10" departSpeed="0.00" departDelay="11.00" arrival="194.00" arrivalLane="gneE1_1" arrivalPos="100.00" arrivalSpeed="13.89" duration="173.00" routeLength="996.75" waitingTime="80.00" waitingCount="2" stopTime="0.00" timeLoss="100.47" rerouteNo="1" devices="vehroute_type1.10 tripinfo_type1.10 routing_type1.10" vType="car" speedFactor="1.00" vaporized=""/>
    <tripinfo id="type1.11" depart="22.00" departLane="gneE0_0" departPos="5.10" departSpeed="0.00" departDelay="11.00" arrival="195.00" arrivalLane="gneE1_1" arrivalPos="100.00" arrivalSpeed="13.89" duration="173.00" routeLength="996.75" waitingTime="80.00" waitingCount="2" stopTime="0.00" timeLoss="100.90" rerouteNo="1" devices="vehroute_type1.11 tripinfo_type1.11 routing_type1.11" vType="car" speedFactor="1.00" vaporized=""/>
    <tripinfo id="type1.12" depart="25.00" departLane="gneE0_0" departPos="5.10" departSpeed="0.00" departDelay="13.00" arrival="197.00" arrivalLane="gneE1_1" arrivalPos="100.00" arrivalSpeed="13.89" duration="172.00" routeLength="996.75" waitingTime="80.00" waitingCount="2" stopTime="0.00" timeLoss="99.33" rerouteNo="1" devices="vehroute_type1.12 tripinfo_type1.12 routing_type1.12" vType="car" speedFactor="1.00" vaporized=""/>
    <tripinfo id="type1.13" depart="26.00" departLane="gneE0_0" departPos="5.10" departSpeed="0.00" departDelay="13.00" arrival="198.00" arrivalLane="gneE1_1" arrivalPos="100.00" arrivalSpeed="13.89" duration="172.00" routeLength="996.75" waitingTime="79.00" waitingCount="2" stopTime="0.00" timeLoss="99.77" rerouteNo="1" devices="vehroute_type1.13 tripinfo_type1.13 routing_type1.13" vType="car" speedFactor="1.00" vaporized=""/>
    <tripinfo id="type1.14" depart="29.00" departLane="gneE0_0" departPos="5.10" departSpeed="0.00" departDelay="15.00" arrival="199.00" arrivalLane="gneE1_1" arrivalPos="100.00" arrivalSpeed="13.89" duration="170.00" routeLength="996.75" waitingTime="78.00" waitingCount="2" stopTime="0.00" timeLoss="98.20" rerouteNo="1" devices="vehroute_type1.14 tripinfo_type1.14 routing_type1.14" vType="car" speedFactor="1.00" vaporized=""/>
    <tripinfo id="type1.29" depart="58.00" departLane="gneE0_0" departPos="5.10" departSpeed="0.00" departDelay="29.00" arrival="201.00" arrivalLane="gneE1_1" arrivalPos="100.00" arrivalSpeed="13.89" duration="143.00" routeLength="996.75" waitingTime="51.00" waitingCount="2" stopTime="0.00" timeLoss="70.63" rerouteNo="1" devices="vehroute_type1.29 tripinfo_type1.29 routing_type1.29" vType="car" speedFactor="1.00" vaporized=""/>
    <tripinfo id="type1.15" depart="30.00" departLane="gneE0_0" departPos="5.10" departSpeed="0.00" departDelay="15.00" arrival="202.00" arrivalLane="gneE1_1" arrivalPos="100.00" arrivalSpeed="13.89" duration="172.00" routeLength="996.75" waitingTime="80.00" waitingCount="2" stopTime="0.00" timeLoss="100.06" rerouteNo="1" devices="vehroute_type1.15 tripinfo_type1.15 routing_type1.15" vType="car" speedFactor="1.00" vaporized=""/>
    <tripinfo id="type1.31" depart="62.00" departLane="gneE0_0" departPos="5.10" departSpeed="0.00" departDelay="31.00" arrival="204.00" arrivalLane="gneE1_1" arrivalPos="100.00" arrivalSpeed="13.89" duration="142.00" routeLength="996.75" waitingTime="50.00" waitingCount="2" stopTime="0.00" timeLoss="69.49" rerouteNo="1" devices="vehroute_type1.31 tripinfo_type1.31 routing_type1.31" vType="car" speedFactor="1.00" vaporized=""/>
    <tripinfo id="type1.16" depart="33.00" departLane="gneE0_0" departPos="5.10" departSpeed="0.00" departDelay="17.00" arrival="205.00" arrivalLane="gneE1_1" arrivalPos="100.00" arrivalSpeed="13.89" duration="172.00" routeLength="996.75" waitingTime="81.00" waitingCount="3" stopTime="0.00" timeLoss="99.92" rerouteNo="1" devices="vehroute_type1.16 tripinfo_type1.16 routing_type1.16" vType="car" speedFactor="1.00" vaporized=""/>
    <tripinfo id="type1.32" depart="65.00" departLane="gneE0_0" departPos="5.10" departSpeed="0.00" departDelay="33.00" arrival="207.00" arrivalLane="gneE1_1" arrivalPos="100.00" arrivalSpeed="13.89" duration="142.00" routeLength="996.75" waitingTime="49.00" waitingCount="3" stopTime="0.00" timeLoss="69.36" rerouteNo="1" devices="vehroute_type1.32 tripinfo_type1.32 routing_type1.32" vType="car" speedFactor="1.00" vaporized=""/>
    <tripinfo id="type1.17" depart="34.00" departLane="gneE0_0" departPos="5.10" departSpeed="0.00" departDelay="17.00" arrival="208.00" arrivalLane="gneE1_1" arrivalPos="100.00" arrivalSpeed="13.89" duration="174.00" routeLength="996.75" waitingTime="80.00" waitingCount="3" stopTime="0.00" timeLoss="101.79" rerouteNo="1" devices="vehroute_type1.17 tripinfo_type1.17 routing_type1.17" vType="car" speedFactor="1.00" vaporized=""/>
    <tripinfo id="type1.33" depart="68.00" departLane="gneE0_0" departPos="5.10" departSpeed="0.00" departDelay="35.00" arrival="214.00" arrivalLane="gneE1_1" arrivalPos="100.00" arrivalSpeed="13.89" duration="146.00" routeLength="996.75" waitingTime="52.00" waitingCount="4" stopTime="0.00" timeLoss="73.37" rerouteNo="1" devices="vehroute_type1.33 tripinfo_type1.33 routing_type1.33" vType="car" speedFactor="1.00" vaporized=""/>
    <tripinfo id="type1.34" depart="71.00" departLane="gneE0_0" departPos="5.10" departSpeed="0.00" departDelay="37.00" arrival="265.00" arrivalLane="gneE1_1" arrivalPos="100.00" arrivalSpeed="13.89" duration="194.00" routeLength="996.75" waitingTime="96.00" waitingCount="6" stopTime="0.00" timeLoss="121.88" rerouteNo="1" devices="vehroute_type1.34 tripinfo_type1.34 routing_type1.34" vType="car" speedFactor="1.00" vaporized=""/>
    <tripinfo id="type1.43" depart="98.00" departLane="gneE0_0" departPos="5.10" departSpeed="0.00" departDelay="55.00" arrival="265.00" arrivalLane="gneE1_0" arrivalPos="100.00" arrivalSpeed="13.89" duration="167.00" routeLength="998.85" waitingTime="70.00" waitingCount="4" stopTime="0.00" timeLoss="94.58" rerouteNo="1" devices="vehroute_type1.43 tripinfo_type1.43 routing_type1.43" vType="car" speedFactor="1.00" vaporized=""/>
    <tripinfo id="type1.44" depart="101.00" departLane="gneE0_0" departPos="5.10" departSpeed="0.00" departDelay="57.00" arrival="266.00" arrivalLane="gneE1_0" arrivalPos="100.00" arrivalSpeed="13.89" duration="165.00" routeLength="998.85" waitingTime="70.00" waitingCount="4" stopTime="0.00" timeLoss="93.02" rerouteNo="1" devices="vehroute_type1.44 tripinfo_type1.44 routing_type1.44" vType="car" speedFactor="1.00" vaporized=""/>
    <tripinfo id="type1.35" depart="74.00" departLane="gneE0_0" departPos="5.10" departSpeed="0.00" departDelay="39.00" arrival="267.00" arrivalLane="gneE1_1" arrivalPos="100.00" arrivalSpeed="13.89" duration="193.00" routeLength="996.75" waitingTime="94.00" waitingCount="4" stopTime="0.00" timeLoss="120.31" rerouteNo="1" devices="vehroute_type1.35 tripinfo_type1.35 routing_type1.35" vType="car" speedFactor="1.00" vaporized=""/>
    <tripinfo id="type1.18" depart="37.00" departLane="gneE0_0" departPos="5.10" departSpeed="0.00" departDelay="19.00" arrival="268.00" arrivalLane="gneE1_1" arrivalPos="100.00" arrivalSpeed="13.89" duration="231.00" routeLength="996.75" waitingTime="133.00" waitingCount="7" stopTime="0.00" timeLoss="158.74" rerouteNo="1" devices="vehroute_type1.18 tripinfo_type1.18 routing_type1.18" vType="car" speedFactor="1.00" vaporized=""/>
    <tripinfo id="type1.45" depart="104.00" departLane="gneE0_0" departPos="5.10" departSpeed="0.00" departDelay="59.00" arrival="268.00" arrivalLane="gneE1_0" arrivalPos="100.00" arrivalSpeed="13.89" duration="164.00" routeLength="998.85" waitingTime="69.00" waitingCount="3" stopTime="0.00" timeLoss="91.45" rerouteNo="1" devices="vehroute_type1.45 tripinfo_type1.45 routing_type1.45" vType="car" speedFactor="1.00" vaporized=""/>
    <tripinfo id="type1.36" depart="77.00" departLane="gneE0_0" departPos="5.10" departSpeed="0.00" departDelay="41.00" arrival="269.00" arrivalLane="gneE1_1" arrivalPos="100.00" arrivalSpeed="13.89" duration="192.00" routeLength="996.75" waitingTime="89.00" waitingCount="4" stopTime="0.00" timeLoss="120.17" rerouteNo="1" devices="vehroute_type1.36 tripinfo_type1.36 routing_type1.36" vType="car" speedFactor="1.00" vaporized=""/>
    <tripinfo id="type1.46" depart="107.00" departLane="gneE0_0" departPos="5.10" departSpeed="0.00" departDelay="61.00" arrival="269.00" arrivalLane="gneE1_0" arrivalPos="100.00" arrivalSpeed="13.89" duration="162.00" routeLength="998.85" waitingTime="69.00" waitingCount="3" stopTime="0.00" timeLoss="89.88" rerouteNo="1" devices="vehroute_type1.46 tripinfo_type1.46 routing_type1.46" vType="car" speedFactor="1.00" vaporized=""/>
    <tripinfo id="type1.19" depart="38.00" departLane="gneE0_0" departPos="5.10" departSpeed="0.00" departDelay="19.00" arrival="271.00" arrivalLane="gneE1_1" arrivalPos="100.00" arrivalSpeed="13.89" duration="233.00" routeLength="996.75" waitingTime="131.00" waitingCount="8" stopTime="0.00" timeLoss="160.60" rerouteNo="1" devices="vehroute_type1.19 tripinfo_type1.19 routing_type1.19" vType="car" speedFactor="1.00" vaporized=""/>
    <tripinfo id="type1.47" depart="110.00" departLane="gneE0_0" departPos="5.10" departSpeed="0.00" departDelay="63.00" arrival="271.00" arrivalLane="gneE1_0" arrivalPos="100.00" arrivalSpeed="13.89" duration="161.00" routeLength="998.85" waitingTime="68.00" waitingCount="3" stopTime="0.00" timeLoss="88.31" rerouteNo="1" devices="vehroute_type1.47 tripinfo_type1.47 routing_type1.47" vType="car" speedFactor="1.00" vaporized=""/>
    <tripinfo id="type1.37" depart="80.00" departLane="gneE0_0" departPos="5.10" departSpeed="0.00" departDelay="43.00" arrival="272.00" arrivalLane="gneE1_1" arrivalPos="100.00" arrivalSpeed="13.89" duration="192.00" routeLength="996.75" waitingTime="90.00" waitingCount="5" stopTime="0.00" timeLoss="120.04" rerouteNo="1" devices="vehroute_type1.37 tripinfo_type1.37 routing_type1.37" vType="car" speedFactor="1.00" vaporized=""/>
    <tripinfo id="type1.48" depart="113.00" departLane="gneE0_0" departPos="5.10" departSpeed="0.00" departDelay="65.00" arrival="272.00" arrivalLane="gneE1_0" arrivalPos="100.00" arrivalSpeed="13.89" duration="159.00" routeLength="998.85" waitingTime="67.00" waitingCount="2" stopTime="0.00" timeLoss="86.74" rerouteNo="1" devices="vehroute_type1.48 tripinfo_type1.48 routing_type1.48" vType="car" speedFactor="1.00" vaporized=""/>
    <tripinfo id="type1.20" depart="41.00" departLane="gneE0_0" departPos="5.10" departSpeed="0.00" departDelay="21.00" arrival="274.00" arrivalLane="gneE1_1" arrivalPos="100.00" arrivalSpeed="13.89" duration="233.00" routeLength="996.75" waitingTime="131.00" waitingCount="8" stopTime="0.00" timeLoss="160.47" rerouteNo="1" devices="vehroute_type1.20 tripinfo_type1.20 routing_type1.20" vType="car" speedFactor="1.00" vaporized=""/>
    <tripinfo id="type1.49" depart="116.00" departLane="gneE0_0" departPos="5.10" departSpeed="0.00" departDelay="67.00" arrival="274.00" arrivalLane="gneE1_0" arrivalPos="100.00" arrivalSpeed="13.89" duration="158.00" routeLength="998.85" waitingTime="67.00" waitingCount="2" stopTime="0.00" timeLoss="85.18" rerouteNo="1" devices="vehroute_type1.49 tripinfo_type1.49 routing_type1.49" vType="car" speedFactor="1.00" vaporized=""/>
    <tripinfo id="type1.38" depart="83.00" departLane="gneE0_0" departPos="5.10" departSpeed="0.00" departDelay="45.00" arrival="275.00" arrivalLane="gneE1_1" arrivalPos="100.00" arrivalSpeed="13.89" duration="192.00" routeLength="996.75" waitingTime="87.00" waitingCount="3" stopTime="0.00" timeLoss="119.90" rerouteNo="1" devices="vehroute_type1.38 tripinfo_type1.38 routing_type1.38" vType="car" speedFactor="1.00" vaporized=""/>
    <tripinfo id="type1.50" depart="119.00" departLane="gneE0_0" departPos="5.10" departSpeed="0.00" departDelay="69.00" arrival="275.00" arrivalLane="gneE1_0" arrivalPos="100.00" arrivalSpeed="13.89" duration="156.00" routeLength="998.85" waitingTime="68.00" waitingCount="3" stopTime="0.00" timeLoss="83.61" rerouteNo="1" devices="vehroute_type1.50 tripinfo_type1.50 routing_type1.50" vType="car" speedFactor="1.00" vaporized=""/>
    <tripinfo id="type1.51" depart="123.00" departLane="gneE0_0" departPos="5.10" departSpeed="0.00" departDelay="72.00" arrival="276.00" arrivalLane="gneE1_0" arrivalPos="100.00" arrivalSpeed="13.89" duration="153.00" routeLength="998.85" waitingTime="67.00" waitingCount="2" stopTime="0.00" timeLoss="81.04" rerouteNo="1" devices="vehroute_type1.51 tripinfo_type1.51 routing_type1.51" vType="car" speedFactor="1.00" vaporized=""/>
    <tripinfo id="type1.39" depart="86.00" departLane="gneE0_0" departPos="5.10" departSpeed="0.00" departDelay="47.00" arrival="277.00" arrivalLane="gneE1_1" arrivalPos="100.00" arrivalSpeed="13.89" duration="191.00" routeLength="996.75" waitingTime="87.00" waitingCount="3" stopTime="0.00" timeLoss="118.33" rerouteNo="1" devices="vehroute_type1.39 tripinfo_type1.39 routing_type1.39" vType="car" speedFactor="1.00" vaporized=""/>
    <tripinfo id="type1.40" depart="89.00" departLane="gneE0_0" departPos="5.10" departSpeed="0.00" departDelay="49.00" arrival="278.00" arrivalLane="gneE1_1" arrivalPos="100.00" arrivalSpeed="13.89" duration="189.00" routeLength="996.75" waitingTime="87.00" waitingCount="3" stopTime="0.00" timeLoss="116.77" rerouteNo="1" devices="vehroute_type1.40 tripinfo_type1.40 routing_type1.40" vType="car" speedFactor="1.00" vaporized=""/>
    <tripinfo id="type1.52" depart="126.00" departLane="gneE0_0" departPos="5.10" departSpeed="0.00" departDelay="74.00" arrival="278.00" arrivalLane="gneE1_0" arrivalPos="100.00" arrivalSpeed="13.89" duration="152.00" routeLength="998.85" waitingTime="66.00" waitingCount="2" stopTime="0.00" timeLoss="79.47" rerouteNo="1" devices="vehroute_type1.52 tripinfo_type1.52 routing_type1.52" vType="car" speedFactor="1.00" vaporized=""/>
    <tripinfo id="type1.41" depart="92.00" departLane="gneE0_0" departPos="5.10" departSpeed="0.00" departDelay="51.00" arrival="279.00" arrivalLane="gneE1_1" arrivalPos="100.00" arrivalSpeed="13.89" duration="187.00" routeLength="996.75" waitingTime="87.00" waitingCount="3" stopTime="0.00" timeLoss="115.20" rerouteNo="1" devices="vehroute_type1.41 tripinfo_type1.41 routing_type1.41" vType="car" speedFactor="1.00" vaporized=""/>
    <tripinfo id="type1.53" depart="129.00" departLane="gneE0_0" departPos="5.10" departSpeed="0.00" departDelay="76.00" arrival="279.00" arrivalLane="gneE1_0" arrivalPos="100.00" arrivalSpeed="13.89" duration="150.00" routeLength="998.85" waitingTime="65.00" waitingCount="2" stopTime="0.00" timeLoss="77.90" rerouteNo="1" devices="vehroute_type1.53 tripinfo_type1.53 routing_type1.53" vType="car" speedFactor="1.00" vaporized=""/>
    <tripinfo id="type1.42" depart="95.00" departLane="gneE0_0" departPos="5.10" departSpeed="0.00" departDelay="53.00" arrival="281.00" arrivalLane="gneE1_1" arrivalPos="100.00" arrivalSpeed="13.89" duration="186.00" routeLength="996.75" waitingTime="84.00" waitingCount="4" stopTime="0.00" timeLoss="113.63" rerouteNo="1" devices="vehroute_type1.42 tripinfo_type1.42 routing_type1.42" vType="car" speedFactor="1.00" vaporized=""/>
    <tripinfo id="type1.21" depart="42.00" departLane="gneE0_0" departPos="5.10" departSpeed="0.00" departDelay="21.00" arrival="282.00" arrivalLane="gneE1_1" arrivalPos="100.00" arrivalSpeed="13.89" duration="240.00" routeLength="996.75" waitingTime="137.00" waitingCount="11" stopTime="0.00" timeLoss="168.06" rerouteNo="1" devices="vehroute_type1.21 tripinfo_type1.21 routing_type1.21" vType="car" speedFactor="1.00" vaporized=""/>
    <tripinfo id="type1.22" depart="45.00" departLane="gneE0_0" departPos="5.10" departSpeed="0.00" departDelay="23.00" arrival="284.00" arrivalLane="gneE1_1" arrivalPos="100.00" arrivalSpeed="13.89" duration="239.00" routeLength="996.75" waitingTime="136.00" waitingCount="11" stopTime="0.00" timeLoss="166.49" rerouteNo="1" devices="vehroute_type1.22 tripinfo_type1.22 routing_type1.22" vType="car" speedFactor="1.00" vaporized=""/>
    <tripinfo id="type1.54" depart="132.00" departLane="gneE0_0" departPos="5.10" departSpeed="0.00" departDelay="78.00" arrival="294.00" arrivalLane="gneE1_0" arrivalPos="100.00" arrivalSpeed="13.89" duration="162.00" routeLength="998.85" waitingTime="77.00" waitingCount="2" stopTime="0.00" timeLoss="89.46" rerouteNo="1" devices="vehroute_type1.54 tripinfo_type1.54 routing_type1.54" vType="car" speedFactor="1.00" vaporized=""/>
    <tripinfo id="type1.23" depart="46.00" departLane="gneE0_0" departPos="5.10" departSpeed="0.00" departDelay="23.00" arrival="326.00" arrivalLane="gneE1_1" arrivalPos="100.00" arrivalSpeed="13.89" duration="280.00" routeLength="996.75" waitingTime="171.00" waitingCount="12" stopTime="0.00" timeLoss="207.49" rerouteNo="1" devices="vehroute_type1.23 tripinfo_type1.23 routing_type1.23" vType="car" speedFactor="1.00" vaporized=""/>
    <tripinfo id="type1.24" depart="49.00" departLane="gneE0_0" departPos="5.10" departSpeed="0.00" departDelay="25.00" arrival="327.00" arrivalLane="gneE1_1" arrivalPos="100.00" arrivalSpeed="13.89" duration="278.00" routeLength="996.75" waitingTime="170.00" waitingCount="11" stopTime="0.00" timeLoss="205.92" rerouteNo="1" devices="vehroute_type1.24 tripinfo_type1.24 routing_type1.24" vType="car" speedFactor="1.00" vaporized=""/>
    <tripinfo id="type1.25" depart="50.00" departLane="gneE0_0" departPos="5.10" departSpeed="0.00" departDelay="25.00" arrival="329.00" arrivalLane="gneE1_1" arrivalPos="100.00" arrivalSpeed="13.89" duration="279.00" routeLength="996.75" waitingTime="169.00" waitingCount="10" stopTime="0.00" timeLoss="206.35" rerouteNo="1" devices="vehroute_type1.25 tripinfo_type1.25 routing_type1.25" vType="car" speedFactor="1.00" vaporized=""/>
    <tripinfo id="type1.26" depart="53.00" departLane="gneE0_0" departPos="5.10" departSpeed="0.00" departDelay="27.00" arrival="330.00" arrivalLane="gneE1_1" arrivalPos="100.00" arrivalSpeed="13.89" duration="277.00" routeLength="996.75" waitingTime="169.00" waitingCount="10" stopTime="0.00" timeLoss="204.78" rerouteNo="1" devices="vehroute_type1.26 tripinfo_type1.26 routing_type1.26" vType="car" speedFactor="1.00" vaporized=""/>
    <tripinfo id="type1.27" depart="54.00" departLane="gneE0_0" departPos="5.10" departSpeed="0.00" departDelay="27.00" arrival="331.00" arrivalLane="gneE1_1" arrivalPos="100.00" arrivalSpeed="13.89" duration="277.00" routeLength="996.75" waitingTime="168.00" waitingCount="10" stopTime="0.00" timeLoss="205.21" rerouteNo="1" devices="vehroute_type1.27 tripinfo_type1.27 routing_type1.27" vType="car" speedFactor="1.00" vaporized=""/>
    <tripinfo id="type1.28" depart="57.00" departLane="gneE0_0" departPos="5.10" departSpeed="0.00" departDelay="29.00" arrival="333.00" arrivalLane="gneE1_1" arrivalPos="100.00" arrivalSpeed="13.89" duration="276.00" routeLength="996.75" waitingTime="169.00" waitingCount="10" stopTime="0.00" timeLoss="203.65" rerouteNo="1" devices="vehroute_type1.28 tripinfo_type1.28 routing_type1.28" vType="car" speedFactor="1.00" vaporized=""/>
    <tripinfo id="type1.30" depart="61.00" departLane="gneE0_0" departPos="5.10" departSpeed="0.00" departDelay="31.00" arrival="345.00" arrivalLane="gneE1_1" arrivalPos="100.00" arrivalSpeed="13.89" duration="284.00" routeLength="996.75" waitingTime="178.00" waitingCount="10" stopTime="0.00" timeLoss="211.88" rerouteNo="1" devices="vehroute_type1.30 tripinfo_type1.30 routing_type1.30" vType="car" speedFactor="1.00" vaporized=""/>
    <tripinfo id="type1.55" depart="135.00" departLane="gneE0_0" departPos="5.10" departSpeed="0.00" departDelay="80.00" arrival="345.00" arrivalLane="gneE1_0" arrivalPos="100.00" arrivalSpeed="13.89" duration="210.00" routeLength="998.85" waitingTime="119.00" waitingCount="3" stopTime="0.00" timeLoss="137.58" rerouteNo="1" devices="vehroute_type1.55 tripinfo_type1.55 routing_type1.55" vType="car" speedFactor="1.00" vaporized=""/>
    <tripinfo id="type1.56" depart="138.00" departLane="gneE0_0" departPos="5.10" departSpeed="0.00" departDelay="82.00" arrival="346.00" arrivalLane="gneE1_0" arrivalPos="100.00" arrivalSpeed="13.89" duration="208.00" routeLength="998.85" waitingTime="118.00" waitingCount="3" stopTime="0.00" timeLoss="136.01" rerouteNo="1" devices="vehroute_type1.56 tripinfo_type1.56 routing_type1.56" vType="car" speedFactor="1.00" vaporized=""/>
    <tripinfo id="type1.57" depart="141.00" departLane="gneE0_0" departPos="5.10" departSpeed="0.00" departDelay="84.00" arrival="348.00" arrivalLane="gneE1_0" arrivalPos="100.00" arrivalSpeed="13.89" duration="207.00" routeLength="998.85" waitingTime="117.00" waitingCount="3" stopTime="0.00" timeLoss="134.45" rerouteNo="1" devices="vehroute_type1.57 tripinfo_type1.57 routing_type1.57" vType="car" speedFactor="1.00" vaporized=""/>
    <tripinfo id="type1.58" depart="144.00" departLane="gneE0_0" departPos="5.10" departSpeed="0.00" departDelay="86.00" arrival="349.00" arrivalLane="gneE1_0" arrivalPos="100.00" arrivalSpeed="13.89" duration="205.00" routeLength="998.85" waitingTime="117.00" waitingCount="3" stopTime="0.00" timeLoss="132.88" rerouteNo="1" devices="vehroute_type1.58 tripinfo_type1.58 routing_type1.58" vType="car" speedFactor="1.00" vaporized=""/>
    <tripinfo id="type1.59" depart="176.00" departLane="gneE0_0" departPos="5.10" departSpeed="0.00" departDelay="117.00" arrival="351.00" arrivalLane="gneE1_0" arrivalPos="100.00" arrivalSpeed="13.89" duration="175.00" routeLength="998.85" waitingTime="88.00" waitingCount="2" stopTime="0.00" timeLoss="102.31" rerouteNo="1" devices="vehroute_type1.59 tripinfo_type1.59 routing_type1.59" vType="car" speedFactor="1.00" vaporized=""/>
    <tripinfo id="type1.60" depart="179.00" departLane="gneE0_0" departPos="5.10" departSpeed="0.00" departDelay="119.00" arrival="352.00" arrivalLane="gneE1_0" arrivalPos="100.00" arrivalSpeed="13.89" duration="173.00" routeLength="998.85" waitingTime="86.00" waitingCount="2" stopTime="0.00" timeLoss="100.74" rerouteNo="1" devices="vehroute_type1.60 tripinfo_type1.60 routing_type1.60" vType="car" speedFactor="1.00" vaporized=""/>
    <tripinfo id="type1.61" depart="182.00" departLane="gneE0_0" departPos="5.10" departSpeed="0.00" departDelay="121.00" arrival="354.00" arrivalLane="gneE1_0" arrivalPos="100.00" arrivalSpeed="13.89" duration="172.00" routeLength="998.85" waitingTime="85.00" waitingCount="2" stopTime="0.00" timeLoss="99.17" rerouteNo="1" devices="vehroute_type1.61 tripinfo_type1.61 routing_type1.61" vType="car" speedFactor="1.00" vaporized=""/>
    <tripinfo id="type1.62" depart="185.00" departLane="gneE0_0" departPos="5.10" departSpeed="0.00" departDelay="123.00" arrival="360.00" arrivalLane="gneE1_0" arrivalPos="100.00" arrivalSpeed="13.89" duration="175.00" routeLength="998.85" waitingTime="83.00" waitingCount="2" stopTime="0.00" timeLoss="102.71" rerouteNo="1" devices="vehroute_type1.62 tripinfo_type1.62 routing_type1.62" vType="car" speedFactor="1.00" vaporized=""/>
    <tripinfo id="type1.63" depart="188.00" departLane="gneE0_0" departPos="5.10" departSpeed="0.00" departDelay="125.00" arrival="362.00" arrivalLane="gneE1_0" arrivalPos="100.00" arrivalSpeed="13.89" duration="174.00" routeLength="998.85" waitingTime="82.00" waitingCount="2" stopTime="0.00" timeLoss="101.14" rerouteNo="1" devices="vehroute_type1.63 tripinfo_type1.63 routing_type1.63" vType="car" speedFactor="1.00" vaporized=""/>
    <tripinfo id="type1.64" depart="191.00" departLane="gneE0_0" departPos="5.10" departSpeed="0.00" departDelay="127.00" arrival="363.00" arrivalLane="gneE1_0" arrivalPos="100.00" arrivalSpeed="13.89" duration="172.00" routeLength="998.85" waitingTime="80.00" waitingCount="2" stopTime="0.00" timeLoss="99.58" rerouteNo="1" devices="vehroute_type1.64 tripinfo_type1.64 routing_type1.64" vType="car" speedFactor="1.00" vaporized=""/>
    <tripinfo id="type1.65" depart="194.00" departLane="gneE0_0" departPos="5.10" departSpeed="0.00" departDelay="129.00" arrival="364.00" arrivalLane="gneE1_0" arrivalPos="100.00" arrivalSpeed="13.89" duration="170.00" routeLength="998.85" waitingTime="74.00" waitingCount="2" stopTime="0.00" timeLoss="98.01" rerouteNo="1" devices="vehroute_type1.65 tripinfo_type1.65 routing_type1.65" vType="car" speedFactor="1.00" vaporized=""/>