<?xml version="1.0" encoding="UTF-8"?>

<!-- generated on Wed Sep 12 14:00:57 2018 by Eclipse SUMO Version v1_0_0+0139-646ed4b
This data file and the accompanying materials
are made available under the terms of the Eclipse Public License v2.0
which accompanies this distribution, and is available at
http://www.eclipse.org/legal/epl-v20.html
SPDX-License-Identifier: EPL-2.0
<configuration xmlns:xsi="http://www.w3.org/2001/XMLSchema-instance" xsi:noNamespaceSchemaLocation="http://sumo.dlr.de/xsd/sumoConfiguration.xsd">

    <input>
        <net-file value="net.net.xml"/>
        <route-files value="input_routes.rou.xml"/>
    </input>

    <output>
        <write-license value="true"/>
        <tripinfo-output value="tripinfos.xml"/>
        <vehroute-output value="vehroutes.xml"/>
    </output>

    <processing>
        <default.speeddev value="0"/>
    </processing>

    <routing>
        <routing-algorithm value="astar"/>
        <device.rerouting.probability value="1"/>
        <device.rerouting.period value="240"/>
        <device.rerouting.adaptation-interval value="1"/>
    </routing>

    <report>
        <xml-validation value="never"/>
        <no-step-log value="true"/>
    </report>

</configuration>
-->

<tripinfos xmlns:xsi="http://www.w3.org/2001/XMLSchema-instance" xsi:noNamespaceSchemaLocation="http://sumo.dlr.de/xsd/tripinfo_file.xsd">
    <tripinfo id="type1.0" depart="0.00" departLane="gneE0_0" departPos="5.10" departSpeed="0.00" departDelay="0.00" arrival="116.00" arrivalLane="gneE1_1" arrivalPos="100.00" arrivalSpeed="13.89" duration="116.00" routeLength="992.49" waitingTime="33.00" waitingCount="1" stopTime="0.00" timeLoss="43.79" rerouteNo="1" devices="vehroute_type1.0 tripinfo_type1.0 routing_type1.0" vType="car" speedFactor="1.00" vaporized=""/>
    <tripinfo id="type1.1" depart="3.00" departLane="gneE0_0" departPos="5.10" departSpeed="0.00" departDelay="2.00" arrival="186.00" arrivalLane="gneE1_1" arrivalPos="100.00" arrivalSpeed="13.89" duration="183.00" routeLength="992.49" waitingTime="90.00" waitingCount="3" stopTime="0.00" timeLoss="110.79" rerouteNo="1" devices="vehroute_type1.1 tripinfo_type1.1 routing_type1.1" vType="car" speedFactor="1.00" vaporized=""/>
    <tripinfo id="type1.2" depart="5.00" departLane="gneE0_0" departPos="5.10" departSpeed="0.00" departDelay="3.00" arrival="187.00" arrivalLane="gneE1_1" arrivalPos="100.00" arrivalSpeed="13.89" duration="182.00" routeLength="992.49" waitingTime="89.00" waitingCount="3" stopTime="0.00" timeLoss="110.22" rerouteNo="1" devices="vehroute_type1.2 tripinfo_type1.2 routing_type1.2" vType="car" speedFactor="1.00" vaporized=""/>
    <tripinfo id="type1.3" depart="7.00" departLane="gneE0_0" departPos="5.10" departSpeed="0.00" departDelay="4.00" arrival="189.00" arrivalLane="gneE1_1" arrivalPos="100.00" arrivalSpeed="13.89" duration="182.00" routeLength="992.49" waitingTime="80.00" waitingCount="4" stopTime="0.00" timeLoss="109.66" rerouteNo="1" devices="vehroute_type1.3 tripinfo_type1.3 routing_type1.3" vType="car" speedFactor="1.00" vaporized=""/>
    <tripinfo id="type1.4" depart="9.00" departLane="gneE0_0" departPos="5.10" departSpeed="0.00" departDelay="5.00" arrival="190.00" arrivalLane="gneE1_1" arrivalPos="100.00" arrivalSpeed="13.89" duration="181.00" routeLength="992.49" waitingTime="80.00" waitingCount="4" stopTime="0.00" timeLoss="109.09" rerouteNo="1" devices="vehroute_type1.4 tripinfo_type1.4 routing_type1.4" vType="car" speedFactor="1.00" vaporized=""/>
    <tripinfo id="type1.5" depart="11.00" departLane="gneE0_0" departPos="5.10" departSpeed="0.00" departDelay="6.00" arrival="191.00" arrivalLane="gneE1_1" arrivalPos="100.00" arrivalSpeed="13.89" duration="180.00" routeLength="992.49" waitingTime="79.00" waitingCount="4" stopTime="0.00" timeLoss="108.52" rerouteNo="1" devices="vehroute_type1.5 tripinfo_type1.5 routing_type1.5" vType="car" speedFactor="1.00" vaporized=""/>
    <tripinfo id="type1.6" depart="13.00" departLane="gneE0_0" departPos="5.10" departSpeed="0.00" departDelay="7.00" arrival="193.00" arrivalLane="gneE1_1" arrivalPos="100.00" arrivalSpeed="13.89" duration="180.00" routeLength="992.49" waitingTime="78.00" waitingCount="4" stopTime="0.00" timeLoss="107.95" rerouteNo="1" devices="vehroute_type1.6 tripinfo_type1.6 routing_type1.6" vType="car" speedFactor="1.00" vaporized=""/>
    <tripinfo id="type1.7" depart="15.00" departLane="gneE0_0" departPos="5.10" departSpeed="0.00" departDelay="8.00" arrival="194.00" arrivalLane="gneE1_1" arrivalPos="100.00" arrivalSpeed="13.89" duration="179.00" routeLength="992.49" waitingTime="77.00" waitingCount="4" stopTime="0.00" timeLoss="107.38" rerouteNo="1" devices="vehroute_type1.7 tripinfo_type1.7 routing_type1.7" vType="car" speedFactor="1.00" vaporized=""/>
    <tripinfo id="type1.8" depart="17.00" departLane="gneE0_0" departPos="5.10" departSpeed="0.00" departDelay="9.00" arrival="196.00" arrivalLane="gneE1_1" arrivalPos="100.00" arrivalSpeed="13.89" duration="179.00" routeLength="992.49" waitingTime="76.00" waitingCount="4" stopTime="0.00" timeLoss="106.82" rerouteNo="1" devices="vehroute_type1.8 tripinfo_type1.8 routing_type1.8" vType="car" speedFactor="1.00" vaporized=""/>
    <tripinfo id="type1.9" depart="18.00" departLane="gneE0_0" departPos="5.10" departSpeed="0.00" departDelay="9.00" arrival="197.00" arrivalLane="gneE1_1" arrivalPos="100.00" arrivalSpeed="13.89" duration="179.00" routeLength="992.49" waitingTime="73.00" waitingCount="4" stopTime="0.00" timeLoss="107.25" rerouteNo="1" devices="vehroute_type1.9 tripinfo_type1.9 routing_type1.9" vType="car" speedFactor="1.00" vaporized=""/>
    <tripinfo id="type1.10" depart="21.00" departLane="gneE0_0" departPos="5.10" departSpeed="0.00" departDelay="11.00" arrival="199.00" arrivalLane="gneE1_1" arrivalPos="100.00" arrivalSpeed="13.89" duration="178.00" routeLength="992.49" waitingTime="73.00" waitingCount="4" stopTime="0.00" timeLoss="105.68" rerouteNo="1" devices="vehroute_type1.10 tripinfo_type1.10 routing_type1.10" vType="car" speedFactor="1.00" vaporized=""/>
    <tripinfo id="type1.11" depart="22.00" departLane="gneE0_0" departPos="5.10" departSpeed="0.00" departDelay="11.00" arrival="200.00" arrivalLane="gneE1_1" arrivalPos="100.00" arrivalSpeed="13.89" duration="178.00" routeLength="992.49" waitingTime="72.00" waitingCount="4" stopTime="0.00" timeLoss="106.11" rerouteNo="1" devices="vehroute_type1.11 tripinfo_type1.11 routing_type1.11" vType="car" speedFactor="1.00" vaporized=""/>
    <tripinfo id="type1.12" depart="25.00" departLane="gneE0_0" departPos="5.10" departSpeed="0.00" departDelay="13.00" arrival="201.00" arrivalLane="gneE1_1" arrivalPos="100.00" arrivalSpeed="13.89" duration="176.00" routeLength="992.49" waitingTime="71.00" waitingCount="4" stopTime="0.00" timeLoss="104.55" rerouteNo="1" devices="vehroute_type1.12 tripinfo_type1.12 routing_type1.12" vType="car" speedFactor="1.00" vaporized=""/>
    <tripinfo id="type1.13" depart="26.00" departLane="gneE0_0" departPos="5.10" departSpeed="0.00" departDelay="13.00" arrival="203.00" arrivalLane="gneE1_1" arrivalPos="100.00" arrivalSpeed="13.89" duration="177.00" routeLength="992.49" waitingTime="70.00" waitingCount="4" stopTime="0.00" timeLoss="104.98" rerouteNo="1" devices="vehroute_type1.13 tripinfo_type1.13 routing_type1.13" vType="car" speedFactor="1.00" vaporized=""/>
    <tripinfo id="type1.14" depart="29.00" departLane="gneE0_0" departPos="5.10" departSpeed="0.00" departDelay="15.00" arrival="204.00" arrivalLane="gneE1_1" arrivalPos="100.00" arrivalSpeed="13.89" duration="175.00" routeLength="995.74" waitingTime="82.00" waitingCount="3" stopTime="0.00" timeLoss="103.17" rerouteNo="1" devices="vehroute_type1.14 tripinfo_type1.14 routing_type1.14" vType="car" speedFactor="1.00" vaporized=""/>
    <tripinfo id="type1.15" depart="32.00" departLane="gneE0_0" departPos="5.10" departSpeed="0.00" departDelay="17.00" arrival="206.00" arrivalLane="gneE1_1" arrivalPos="100.00" arrivalSpeed="13.89" duration="174.00" routeLength="995.74" waitingTime="79.00" waitingCount="3" stopTime="0.00" timeLoss="101.61" rerouteNo="1" devices="vehroute_type1.15 tripinfo_type1.15 routing_type1.15" vType="car" speedFactor="1.00" vaporized=""/>
    <tripinfo id="type1.16" depart="35.00" departLane="gneE0_0" departPos="5.10" departSpeed="0.00" departDelay="19.00" arrival="207.00" arrivalLane="gneE1_1" arrivalPos="100.00" arrivalSpeed="13.89" duration="172.00" routeLength="995.74" waitingTime="78.00" waitingCount="3" stopTime="0.00" timeLoss="100.04" rerouteNo="1" devices="vehroute_type1.16 tripinfo_type1.16 routing_type1.16" vType="car" speedFactor="1.00" vaporized=""/>
    <tripinfo id="type1.17" depart="38.00" departLane="gneE0_0" departPos="5.10" departSpeed="0.00" departDelay="21.00" arrival="209.00" arrivalLane="gneE1_1" arrivalPos="100.00" arrivalSpeed="13.89" duration="171.00" routeLength="995.74" waitingTime="75.00" waitingCount="3" stopTime="0.00" timeLoss="98.47" rerouteNo="1" devices="vehroute_type1.17 tripinfo_type1.17 routing_type1.17" vType="car" speedFactor="1.00" vaporized=""/>
    <tripinfo id="type1.18" depart="41.00" departLane="gneE0_0" departPos="5.10" departSpeed="0.00" departDelay="23.00" arrival="256.00" arrivalLane="gneE1_1" arrivalPos="100.00" arrivalSpeed="13.89" duration="215.00" routeLength="995.74" waitingTime="115.00" waitingCount="4" stopTime="0.00" timeLoss="142.56" rerouteNo="1" devices="vehroute_type1.18 tripinfo_type1.18 routing_type1.18" vType="car" speedFactor="1.00" vaporized=""/>
    <tripinfo id="type1.19" depart="44.00" departLane="gneE0_0" departPos="5.10" departSpeed="0.00" departDelay="25.00" arrival="257.00" arrivalLane="gneE1_1" arrivalPos="100.00" arrivalSpeed="13.89" duration="213.00" routeLength="995.74" waitingTime="112.00" waitingCount="4" stopTime="0.00" timeLoss="140.99" rerouteNo="1" devices="vehroute_type1.19 tripinfo_type1.19 routing_type1.19" vType="car" speedFactor="1.00" vaporized=""/>
    <tripinfo id="type1.20" depart="47.00" departLane="gneE0_0" departPos="5.10" departSpeed="0.00" departDelay="27.00" arrival="259.00" arrivalLane="gneE1_1" arrivalPos="100.00" arrivalSpeed="13.89" duration="212.00" routeLength="995.74" waitingTime="111.00" waitingCount="4" stopTime="0.00" timeLoss="139.42" rerouteNo="1" devices="vehroute_type1.20 tripinfo_type1.20 routing_type1.20" vType="car" speedFactor="1.00" vaporized=""/>
    <tripinfo id="type1.21" depart="50.00" departLane="gneE0_0" departPos="5.10" departSpeed="0.00" departDelay="29.00" arrival="260.00" arrivalLane="gneE1_1" arrivalPos="100.00" arrivalSpeed="13.89" duration="210.00" routeLength="995.74" waitingTime="108.00" waitingCount="4" stopTime="0.00" timeLoss="137.85" rerouteNo="1" devices="vehroute_type1.21 tripinfo_type1.21 routing_type1.21" vType="car" speedFactor="1.00" vaporized=""/>
    <tripinfo id="type1.22" depart="53.00" departLane="gneE0_0" departPos="5.10" departSpeed="0.00" departDelay="31.00" arrival="261.00" arrivalLane="gneE1_1" arrivalPos="100.00" arrivalSpeed="13.89" duration="208.00" routeLength="995.74" waitingTime="106.00" waitingCount="4" stopTime="0.00" timeLoss="136.29" rerouteNo="1" devices="vehroute_type1.22 tripinfo_type1.22 routing_type1.22" vType="car" speedFactor="1.00" vaporized=""/>
    <tripinfo id="type1.23" depart="56.00" departLane="gneE0_0" departPos="5.10" departSpeed="0.00" departDelay="33.00" arrival="263.00" arrivalLane="gneE1_1" arrivalPos="100.00" arrivalSpeed="13.89" duration="207.00" routeLength="995.74" waitingTime="104.00" waitingCount="4" stopTime="0.00" timeLoss="134.72" rerouteNo="1" devices="vehroute_type1.23 tripinfo_type1.23 routing_type1.23" vType="car" speedFactor="1.00" vaporized=""/>
    <tripinfo id="type1.24" depart="59.00" departLane="gneE0_0" departPos="5.10" departSpeed="0.00" departDelay="35.00" arrival="264.00" arrivalLane="gneE1_1" arrivalPos="100.00" arrivalSpeed="13.89" duration="205.00" routeLength="995.74" waitingTime="103.00" waitingCount="4" stopTime="0.00" timeLoss="133.15" rerouteNo="1" devices="vehroute_type1.24 tripinfo_type1.24 routing_type1.24" vType="car" speedFactor="1.00" vaporized=""/>
    <tripinfo id="type1.25" depart="62.00" departLane="gneE0_0" departPos="5.10" departSpeed="0.00" departDelay="37.00" arrival="266.00" arrivalLane="gneE1_1" arrivalPos="100.00" arrivalSpeed="13.89" duration="204.00" routeLength="995.74" waitingTime="102.00" waitingCount="4" stopTime="0.00" timeLoss="131.58" rerouteNo="1" devices="vehroute_type1.25 tripinfo_type1.25 routing_type1.25" vType="car" speedFactor="1.00" vaporized=""/>
    <tripinfo id="type1.26" depart="65.00" departLane="gneE0_0" departPos="5.10" departSpeed="0.00" departDelay="39.00" arrival="267.00" arrivalLane="gneE1_1" arrivalPos="100.00" arrivalSpeed="13.89" duration="202.00" routeLength="995.74" waitingTime="100.00" waitingCount="4" stopTime="0.00" timeLoss="130.01" rerouteNo="1" devices="vehroute_type1.26 tripinfo_type1.26 routing_type1.26" vType="car" speedFactor="1.00" vaporized=""/>
    <tripinfo id="type1.47" depart="147.00" departLane="gneE0_0" departPos="5.10" departSpeed="0.00" departDelay="100.00" arrival="269.00" arrivalLane="gneE1_1" arrivalPos="100.00" arrivalSpeed="13.89" duration="122.00" routeLength="996.75" waitingTime="33.00" waitingCount="1" stopTime="0.00" timeLoss="49.38" rerouteNo="2" devices="vehroute_type1.47 tripinfo_type1.47 routing_type1.47" vType="car" speedFactor="1.00" vaporized=""/>
    <tripinfo id="type1.48" depart="148.00" departLane="gneE0_0" departPos="5.10" departSpeed="0.00" departDelay="100.00" arrival="270.00" arrivalLane="gneE1_1" arrivalPos="100.00" arrivalSpeed="13.89" duration="122.00" routeLength="996.75" waitingTime="33.00" waitingCount="1" stopTime="0.00" timeLoss="49.82" rerouteNo="2" devices="vehroute_type1.48 tripinfo_type1.48 routing_type1.48" vType="car" speedFactor="1.00" vaporized=""/>
    <tripinfo id="type1.49" depart="150.00" departLane="gneE0_0" departPos="5.10" departSpeed="0.00" departDelay="101.00" arrival="271.00" arrivalLane="gneE1_1" arrivalPos="100.00" arrivalSpeed="13.89" duration="121.00" routeLength="996.75" waitingTime="33.00" waitingCount="1" stopTime="0.00" timeLoss="49.25" rerouteNo="2" devices="vehroute_type1.49 tripinfo_type1.49 routing_type1.49" vType="car" speedFactor="1.00" vaporized=""/>
    <tripinfo id="type1.50" depart="152.00" departLane="gneE0_0" departPos="5.10" departSpeed="0.00" departDelay="102.00" arrival="273.00" arrivalLane="gneE1_1" arrivalPos="100.00" arrivalSpeed="13.89" duration="121.00" routeLength="996.75" waitingTime="33.00" waitingCount="2" stopTime="0.00" timeLoss="48.68" rerouteNo="2" devices="vehroute_type1.50 tripinfo_type1.50 routing_type1.50" vType="car" speedFactor="1.00" vaporized=""/>
    <tripinfo id="type1.51" depart="155.00" departLane="gneE0_0" departPos="5.10" departSpeed="0.00" departDelay="104.00" arrival="274.00" arrivalLane="gneE1_1" arrivalPos="100.00" arrivalSpeed="13.89" duration="119.00" routeLength="996.75" waitingTime="31.00" waitingCount="2" stopTime="0.00" timeLoss="47.11" rerouteNo="2" devices="vehroute_type1.51 tripinfo_type1.51 routing_type1.51" vType="car" speedFactor="1.00" vaporized=""/>
    <tripinfo id="type1.52" depart="158.00" departLane="gneE0_0" departPos="5.10" departSpeed="0.00" departDelay="106.00" arrival="276.00" arrivalLane="gneE1_1" arrivalPos="100.00" arrivalSpeed="13.89" duration="118.00" routeLength="996.75" waitingTime="29.00" waitingCount="2" stopTime="0.00" timeLoss="45.54" rerouteNo="2" devices="vehroute_type1.52 tripinfo_type1.52 routing_type1.52" vType="car" speedFactor="1.00" vaporized=""/>
    <tripinfo id="type1.53" depart="161.00" departLane="gneE0_0" departPos="5.10" departSpeed="0.00" departDelay="108.00" arrival="277.00" arrivalLane="gneE1_1" arrivalPos="100.00" arrivalSpeed="13.89" duration="116.00" routeLength="996.75" waitingTime="28.00" waitingCount="2" stopTime="0.00" timeLoss="43.98" rerouteNo="2" devices="vehroute_type1.53 tripinfo_type1.53 routing_type1.53" vType="car" speedFactor="1.00" vaporized=""/>
    <tripinfo id="type1.40" depart="126.00" departLane="gneE0_0" departPos="5.10" departSpeed="0.00" departDelay="86.00" arrival="294.00" arrivalLane="gneE1_0" arrivalPos="100.00" arrivalSpeed="13.89" duration="168.00" routeLength="998.85" waitingTime="78.00" waitingCount="2" stopTime="0.00" timeLoss="95.46" rerouteNo="2" devices="vehroute_type1.40 tripinfo_type1.40 routing_type1.40" vType="car" speedFactor="1.00" vaporized=""/>
    <tripinfo id="type1.30" depart="96.00" departLane="gneE0_0" departPos="5.10" departSpeed="0.00" departDelay="66.00" arrival="310.00" arrivalLane="gneE1_0" arrivalPos="100.00" arrivalSpeed="13.89" duration="214.00" routeLength="994.59" waitingTime="116.00" waitingCount="3" stopTime="0.00" timeLoss="141.95" rerouteNo="2" devices="vehroute_type1.30 tripinfo_type1.30 routing_type1.30" vType="car" speedFactor="1.00" vaporized=""/>
    <tripinfo id="type1.31" depart="99.00" departLane="gneE0_0" departPos="5.10" departSpeed="0.00" departDelay="68.00" arrival="311.00" arrivalLane="gneE1_0" arrivalPos="100.00" arrivalSpeed="13.89" duration="212.00" routeLength="994.59" waitingTime="116.00" waitingCount="3" stopTime="0.00" timeLoss="140.38" rerouteNo="2" devices="vehroute_type1.31 tripinfo_type1.31 routing_type1.31" vType="car" speedFactor="1.00" vaporized=""/>
    <tripinfo id="type1.32" depart="102.00" departLane="gneE0_0" departPos="5.10" departSpeed="0.00" departDelay="70.00" arrival="313.00" arrivalLane="gneE1_0" arrivalPos="100.00" arrivalSpeed="13.89" duration="211.00" routeLength="994.59" waitingTime="117.00" waitingCount="3" stopTime="0.00" timeLoss="138.81" rerouteNo="2" devices="vehroute_type1.32 tripinfo_type1.32 routing_type1.32" vType="car" speedFactor="1.00" vaporized=""/>
    <tripinfo id="type1.33" depart="105.00" departLane="gneE0_0" departPos="5.10" departSpeed="0.00" departDelay="72.00" arrival="314.00" arrivalLane="gneE1_0" arrivalPos="100.00" arrivalSpeed="13.89" duration="209.00" routeLength="994.59" waitingTime="115.00" waitingCount="3" stopTime="0.00" timeLoss="137.25" rerouteNo="2" devices="vehroute_type1.33 tripinfo_type1.33 routing_type1.33" vType="car" speedFactor="1.00" vaporized=""/>
    <tripinfo id="type1.34" depart="108.00" departLane="gneE0_0" departPos="5.10" departSpeed="0.00" departDelay="74.00" arrival="316.00" arrivalLane="gneE1_0" arrivalPos="100.00" arrivalSpeed="13.89" duration="208.00" routeLength="994.59" waitingTime="113.00" waitingCount="3" stopTime="0.00" timeLoss="135.68" rerouteNo="2" devices="vehroute_type1.34 tripinfo_type1.34 routing_type1.34" vType="car" speedFactor="1.00" vaporized=""/>
    <tripinfo id="type1.35" depart="111.00" departLane="gneE0_0" departPos="5.10" departSpeed="0.00" departDelay="76.00" arrival="317.00" arrivalLane="gneE1_0" arrivalPos="100.00" arrivalSpeed="13.89" duration="206.00" routeLength="994.59" waitingTime="110.00" waitingCount="3" stopTime="0.00" timeLoss="134.11" rerouteNo="2" devices="vehroute_type1.35 tripinfo_type1.35 routing_type1.35" vType="car" speedFactor="1.00" vaporized=""/>
    <tripinfo id="type1.36" depart="114.00" departLane="gneE0_0" departPos="5.10" departSpeed="0.00" departDelay="78.00" arrival="319.00" arrivalLane="gneE1_0" arrivalPos="100.00" arrivalSpeed="13.89" duration="205.00" routeLength="994.59" waitingTime="109.00" waitingCount="3" stopTime="0.00" timeLoss="132.54" rerouteNo="2" devices="vehroute_type1.36 tripinfo_type1.36 routing_type1.36" vType="car" speedFactor="1.00" vaporized=""/>
    <tripinfo id="type1.37" depart="117.00" departLane="gneE0_0" departPos="5.10" departSpeed="0.00" departDelay="80.00" arrival="325.00" arrivalLane="gneE1_0" arrivalPos="100.00" arrivalSpeed="13.89" duration="208.00" routeLength="994.59" waitingTime="106.00" waitingCount="3" stopTime="0.00" timeLoss="135.91" rerouteNo="2" devices="vehroute_type1.37 tripinfo_type1.37 routing_type1.37" vType="car" speedFactor="1.00" vaporized=""/>
    <tripinfo id="type1.54" depart="164.00" departLane="gneE0_0" departPos="5.10" departSpeed="0.00" departDelay="110.00" arrival="326.00" arrivalLane="gneE1_1" arrivalPos="100.00" arrivalSpeed="13.89" duration="162.00" routeLength="996.75" waitingTime="72.00" waitingCount="3" stopTime="0.00" timeLoss="89.49" rerouteNo="2" devices="vehroute_type1.54 tripinfo_type1.54 routing_type1.54" vType="car" speedFactor="1.00" vaporized=""/>
    <tripinfo id="type1.38" depart="120.00" departLane="gneE0_0" departPos="5.10" departSpeed="0.00" departDelay="82.00" arrival="326.00" arrivalLane="gneE1_0" arrivalPos="100.00" arrivalSpeed="13.89" duration="206.00" routeLength="994.59" waitingTime="105.00" waitingCount="3" stopTime="0.00" timeLoss="134.35" rerouteNo="2" devices="vehroute_type1.38 tripinfo_type1.38 routing_type1.38" vType="car" speedFactor="1.00" vaporized=""/>
    <tripinfo id="type1.27" depart="68.00" departLane="gneE0_0" departPos="5.10" departSpeed="0.00" departDelay="41.00" arrival="327.00" arrivalLane="gneE1_1" arrivalPos="100.00" arrivalSpeed="13.89" duration="259.00" routeLength="995.74" waitingTime="152.00" waitingCount="5" stopTime="0.00" timeLoss="186.99" rerouteNo="1" devices="vehroute_type1.27 tripinfo_type1.27 routing_type1.27" vType="car" speedFactor="1.00" vaporized=""/>
    <tripinfo id="type1.39" depart="123.00" departLane="gneE0_0" departPos="5.10" departSpeed="0.00" departDelay="84.00" arrival="328.00" arrivalLane="gneE1_0" arrivalPos="100.00" arrivalSpeed="13.89" duration="205.00" routeLength="994.59" waitingTime="102.00" waitingCount="3" stopTime="0.00" timeLoss="132.78" rerouteNo="2" devices="vehroute_type1.39 tripinfo_type1.39 routing_type1.39" vType="car" speedFactor="1.00" vaporized=""/>
    <tripinfo id="type1.28" depart="71.00" departLane="gneE0_0" departPos="5.10" departSpeed="0.00" departDelay="43.00" arrival="329.00" arrivalLane="gneE1_1" arrivalPos="100.00" arrivalSpeed="13.89" duration="258.00" routeLength="995.74" waitingTime="151.00" waitingCount="5" stopTime="0.00" timeLoss="185.42" rerouteNo="1" devices="vehroute_type1.28 tripinfo_type1.28 routing_type1.28" vType="car" speedFactor="1.00" vaporized=""/>
    <tripinfo id="type1.59" depart="177.00" departLane="gneE0_0" departPos="5.10" departSpeed="0.00" departDelay="118.00" arrival="329.00" arrivalLane="gneE1_0" arrivalPos="100.00" arrivalSpeed="13.89" duration="152.00" routeLength="995.02" waitingTime="52.00" waitingCount="3" stopTime="0.00" timeLoss="80.18" rerouteNo="2" devices="vehroute_type1.59 tripinfo_type1.59 routing_type1.59" vType="car" speedFactor="1.00" vaporized=""/>
    <tripinfo id="type1.29" depart="74.00" departLane="gneE0_0" departPos="5.10" departSpeed="0.00" departDelay="45.00" arrival="330.00" arrivalLane="gneE1_1" arrivalPos="100.00" arrivalSpeed="13.89" duration="256.00" routeLength="995.74" waitingTime="151.00" waitingCount="5" stopTime="0.00" timeLoss="183.85" rerouteNo="1" devices="vehroute_type1.29 tripinfo_type1.29 routing_type1.29" vType="car" speedFactor="1.00" vaporized=""/>
    <tripinfo id="type1.60" depart="180.00" departLane="gneE0_0" departPos="5.10" departSpeed="0.00" departDelay="120.00" arrival="331.00" arrivalLane="gneE1_0" arrivalPos="100.00" arrivalSpeed="13.89" duration="151.00" routeLength="995.02" waitingTime="52.00" waitingCount="3" stopTime="0.00" timeLoss="78.61" rerouteNo="2" devices="vehroute_type1.60 tripinfo_type1.60 routing_type1.60" vType="car" speedFactor="1.00" vaporized=""/>
    <tripinfo id="type1.61" depart="181.00" departLane="gneE0_0" departPos="5.10" departSpeed="0.00" departDelay="120.00" arrival="332.00" arrivalLane="gneE1_0" arrivalPos="100.00" arrivalSpeed="13.89" duration="151.00" routeLength="995.02" waitingTime="51.00" waitingCount="3" stopTime="0.00" timeLoss="79.04" rerouteNo="2" devices="vehroute_type1.61 tripinfo_type1.61 routing_type1.61" vType="car" speedFactor="1.00" vaporized=""/>
    <tripinfo id="type1.62" depart="184.00" departLane="gneE0_0" departPos="5.10" departSpeed="0.00" departDelay="122.00" arrival="334.00" arrivalLane="gneE1_0" arrivalPos="100.00" arrivalSpeed="13.89" duration="150.00" routeLength="995.02" waitingTime="51.00" waitingCount="3" stopTime="0.00" timeLoss="77.48" rerouteNo="2" devices="vehroute_type1.62 tripinfo_type1.62 routing_type1.62" vType="car" speedFactor="1.00" vaporized=""/>
    <tripinfo id="type1.63" depart="185.00" departLane="gneE0_0" departPos="5.10" departSpeed="0.00" departDelay="122.00" arrival="335.00" arrivalLane="gneE1_0" arrivalPos="100.00" arrivalSpeed="13.89" duration="150.00" routeLength="995.02" waitingTime="51.00" waitingCount="3" stopTime="0.00" timeLoss="77.91" rerouteNo="2" devices="vehroute_type1.63 tripinfo_type1.63 routing_type1.63" vType="car" speedFactor="1.00" vaporized=""/>
    <tripinfo id="type1.64" depart="188.00" departLane="gneE0_0" departPos="5.10" departSpeed="0.00" departDelay="124.00" arrival="336.00" arrivalLane="gneE1_0" arrivalPos="100.00" arrivalSpeed="13.89" duration="148.00" routeLength="995.02" waitingTime="51.00" waitingCount="3" stopTime="0.00" timeLoss="76.34" rerouteNo="2" devices="vehroute_type1.64 tripinfo_type1.64 routing_type1.64" vType="car" speedFactor="1.00" vaporized=""/>
    <tripinfo id="type1.65" depart="189.00" departLane="gneE0_0" departPos="5.10" departSpeed="0.00" departDelay="124.00" arrival="338.00" arrivalLane="gneE1_0" arrivalPos="100.00" arrivalSpeed="13.89" duration="149.00" routeLength="995.02" waitingTime="51.00" waitingCount="3" stopTime="0.00" timeLoss="76.77" rerouteNo="2" devices="vehroute_type1.65 tripinfo_type1.65 routing_type1.65" vType="car" speedFactor="1.00" vaporized=""/>
    <tripinfo id="type1.66" depart="192.00" departLane="gneE0_0" departPos="5.10" departSpeed="0.00" departDelay="126.00" arrival="339.00" arrivalLane="gneE1_0" arrivalPos="100.00" arrivalSpeed="13.89" duration="147.00" routeLength="995.02" waitingTime="47.00" waitingCount="3" stopTime="0.00" timeLoss="75.20" rerouteNo="2" devices="vehroute_type1.66 tripinfo_type1.66 routing_type1.66" vType="car" speedFactor="1.00" vaporized=""/>
    <tripinfo id="type1.81" depart="221.00" departLane="gneE0_0" departPos="5.10" departSpeed="0.00" departDelay="140.00" arrival="341.00" arrivalLane="gneE1_0" arrivalPos="100.00" arrivalSpeed="13.89" duration="120.00" routeLength="995.02" waitingTime="19.00" waitingCount="3" stopTime="0.00" timeLoss="47.64" rerouteNo="2" devices="vehroute_type1.81 tripinfo_type1.81 routing_type1.81" vType="car" speedFactor="1.00" vaporized=""/>
    <tripinfo id="type1.67" depart="193.00" departLane="gneE0_0" departPos="5.10" departSpeed="0.00" departDelay="126.00" arrival="342.00" arrivalLane="gneE1_0" arrivalPos="100.00" arrivalSpeed="13.89" duration="149.00" routeLength="995.02" waitingTime="49.00" waitingCount="3" stopTime="0.00" timeLoss="77.07" rerouteNo="2" devices="vehroute_type1.67 tripinfo_type1.67 routing_type1.67" vType="car" speedFactor="1.00" vaporized=""/>
    <tripinfo id="type1.83" depart="225.00" departLane="gneE0_0" departPos="5.10" departSpeed="0.00" departDelay="142.00" arrival="344.00" arrivalLane="gneE1_0" arrivalPos="100.00" arrivalSpeed="13.89" duration="119.00" routeLength="995.02" waitingTime="18.00" waitingCount="3" stopTime="0.00" timeLoss="46.50" rerouteNo="2" devices="vehroute_type1.83 tripinfo_type1.83 routing_type1.83" vType="car" speedFactor="1.00" vaporized=""/>
    <tripinfo id="type1.55" depart="167.00" departLane="gneE0_0" departPos="5.10" departSpeed="0.00" departDelay="112.00" arrival="345.00" arrivalLane="gneE1_1" arrivalPos="100.00" arrivalSpeed="13.89" duration="178.00" routeLength="996.75" waitingTime="88.00" waitingCount="3" stopTime="0.00" timeLoss="105.88" rerouteNo="2" devices="vehroute_type1.55 tripinfo_type1.55 routing_type1.55" vType="car" speedFactor="1.00" vaporized=""/>
    <tripinfo id="type1.41" depart="129.00" departLane="gneE0_0" departPos="5.10" departSpeed="0.00" departDelay="88.00" arrival="345.00" arrivalLane="gneE1_0" arrivalPos="100.00" arrivalSpeed="13.89" duration="216.00" routeLength="998.85" waitingTime="120.00" waitingCount="3" stopTime="0.00" timeLoss="144.00" rerouteNo="2" devices="vehroute_type1.41 tripinfo_type1.41 routing_type1.41" vType="car" speedFactor="1.00" vaporized=""/>
    <tripinfo id="type1.56" depart="170.00" departLane="gneE0_0" departPos="5.10" departSpeed="0.00" departDelay="114.00" arrival="347.00" arrivalLane="gneE1_1" arrivalPos="100.00" arrivalSpeed="13.89" duration="177.00" routeLength="996.75" waitingTime="86.00" waitingCount="3" stopTime="0.00" timeLoss="104.31" rerouteNo="2" devices="vehroute_type1.56 tripinfo_type1.56 routing_type1.56" vType="car" speedFactor="1.00" vaporized=""/>
    <tripinfo id="type1.42" depart="132.00" departLane="gneE0_0" departPos="5.10" departSpeed="0.00" departDelay="90.00" arrival="347.00" arrivalLane="gneE1_0" arrivalPos="100.00" arrivalSpeed="13.89" duration="215.00" routeLength="998.85" waitingTime="119.00" waitingCount="3" stopTime="0.00" timeLoss="142.43" rerouteNo="2" devices="vehroute_type1.42 tripinfo_type1.42 routing_type1.42" vType="car" speedFactor="1.00" vaporized=""/>
    <tripinfo id="type1.57" depart="173.00" departLane="gneE0_0" departPos="5.10" departSpeed="0.00" departDelay="116.00" arrival="348.00" arrivalLane="gneE1_1" arrivalPos="100.00" arrivalSpeed="13.89" duration="175.00" routeLength="996.75" waitingTime="85.00" waitingCount="2" stopTime="0.00" timeLoss="102.74" rerouteNo="2" devices="vehroute_type1.57 tripinfo_type1.57 routing_type1.57" vType="car" speedFactor="1.00" vaporized=""/>
    <tripinfo id="type1.43" depart="135.00" departLane="gneE0_0" departPos="5.10" departSpeed="0.00" departDelay="92.00" arrival="348.00" arrivalLane="gneE1_0" arrivalPos="100.00" arrivalSpeed="13.89" duration="213.00" routeLength="998.85" waitingTime="118.00" waitingCount="3" stopTime="0.00" timeLoss="140.86" rerouteNo="2" devices="vehroute_type1.43 tripinfo_type1.43 routing_type1.43" vType="car" speedFactor="1.00" vaporized=""/>