<?xml version="1.0" encoding="UTF-8"?>

<!-- generated on Wed May 30 09:52:08 2018 by Eclipse SUMO Version b2daee9
This data file and the accompanying materials
are made available under the terms of the Eclipse Public License v2.0
which accompanies this distribution, and is available at
http://www.eclipse.org/legal/epl-v20.html
SPDX-License-Identifier: EPL-2.0
<configuration xmlns:xsi="http://www.w3.org/2001/XMLSchema-instance" xsi:noNamespaceSchemaLocation="http://sumo.dlr.de/xsd/sumoConfiguration.xsd">

    <input>
        <net-file value="net.net.xml"/>
        <route-files value="input_routes.rou.xml"/>
    </input>

    <output>
        <write-license value="true"/>
        <tripinfo-output value="tripinfos.xml"/>
        <vehroute-output value="vehroutes.xml"/>
    </output>

    <processing>
        <lateral-resolution value="0.8"/>
    </processing>

    <routing>
        <routing-algorithm value="astar"/>
        <device.rerouting.probability value="1"/>
        <device.rerouting.period value="240"/>
        <device.rerouting.adaptation-interval value="1"/>
    </routing>

    <report>
        <xml-validation value="never"/>
        <no-step-log value="true"/>
    </report>

</configuration>
-->

<tripinfos xmlns:xsi="http://www.w3.org/2001/XMLSchema-instance" xsi:noNamespaceSchemaLocation="http://sumo.dlr.de/xsd/tripinfo_file.xsd">
    <tripinfo id="type1.0" depart="0.00" departLane="gneE0_0" departPos="5.10" departPosLat="0.00" departSpeed="0.00" departDelay="0.00" arrival="116.00" arrivalLane="gneE1_1" arrivalPos="100.00" arrivalPosLat="0.00" arrivalSpeed="13.89" duration="116.00" routeLength="992.49" waitingTime="33.00" waitingCount="1" stopTime="0.00" timeLoss="43.79" rerouteNo="1" devices="vehroute_type1.0 tripinfo_type1.0 routing_type1.0" vType="car" speedFactor="1.00" vaporized=""/>
    <tripinfo id="type1.1" depart="3.00" departLane="gneE0_0" departPos="5.10" departPosLat="0.00" departSpeed="0.00" departDelay="2.00" arrival="186.00" arrivalLane="gneE1_1" arrivalPos="100.00" arrivalPosLat="0.00" arrivalSpeed="13.89" duration="183.00" routeLength="992.49" waitingTime="90.00" waitingCount="3" stopTime="0.00" timeLoss="110.79" rerouteNo="1" devices="vehroute_type1.1 tripinfo_type1.1 routing_type1.1" vType="car" speedFactor="1.00" vaporized=""/>
    <tripinfo id="type1.2" depart="6.00" departLane="gneE0_0" departPos="5.10" departPosLat="0.00" departSpeed="0.00" departDelay="4.00" arrival="187.00" arrivalLane="gneE1_1" arrivalPos="100.00" arrivalPosLat="0.00" arrivalSpeed="13.89" duration="181.00" routeLength="992.49" waitingTime="83.00" waitingCount="4" stopTime="0.00" timeLoss="109.22" rerouteNo="1" devices="vehroute_type1.2 tripinfo_type1.2 routing_type1.2" vType="car" speedFactor="1.00" vaporized=""/>
    <tripinfo id="type1.3" depart="9.00" departLane="gneE0_0" departPos="5.10" departPosLat="0.00" departSpeed="0.00" departDelay="6.00" arrival="189.00" arrivalLane="gneE1_1" arrivalPos="100.00" arrivalPosLat="0.00" arrivalSpeed="13.89" duration="180.00" routeLength="992.49" waitingTime="80.00" waitingCount="4" stopTime="0.00" timeLoss="107.66" rerouteNo="1" devices="vehroute_type1.3 tripinfo_type1.3 routing_type1.3" vType="car" speedFactor="1.00" vaporized=""/>
    <tripinfo id="type1.4" depart="12.00" departLane="gneE0_0" departPos="5.10" departPosLat="0.00" departSpeed="0.00" departDelay="8.00" arrival="190.00" arrivalLane="gneE1_1" arrivalPos="100.00" arrivalPosLat="0.00" arrivalSpeed="13.89" duration="178.00" routeLength="992.49" waitingTime="79.00" waitingCount="4" stopTime="0.00" timeLoss="106.09" rerouteNo="1" devices="vehroute_type1.4 tripinfo_type1.4 routing_type1.4" vType="car" speedFactor="1.00" vaporized=""/>
    <tripinfo id="type1.5" depart="15.00" departLane="gneE0_0" departPos="5.10" departPosLat="0.00" departSpeed="0.00" departDelay="10.00" arrival="191.00" arrivalLane="gneE1_1" arrivalPos="100.00" arrivalPosLat="0.00" arrivalSpeed="13.89" duration="176.00" routeLength="992.49" waitingTime="76.00" waitingCount="4" stopTime="0.00" timeLoss="104.52" rerouteNo="1" devices="vehroute_type1.5 tripinfo_type1.5 routing_type1.5" vType="car" speedFactor="1.00" vaporized=""/>
    <tripinfo id="type1.6" depart="18.00" departLane="gneE0_0" departPos="5.10" departPosLat="0.00" departSpeed="0.00" departDelay="12.00" arrival="193.00" arrivalLane="gneE1_1" arrivalPos="100.00" arrivalPosLat="0.00" arrivalSpeed="13.89" duration="175.00" routeLength="992.49" waitingTime="75.00" waitingCount="4" stopTime="0.00" timeLoss="102.95" rerouteNo="1" devices="vehroute_type1.6 tripinfo_type1.6 routing_type1.6" vType="car" speedFactor="1.00" vaporized=""/>
    <tripinfo id="type1.7" depart="21.00" departLane="gneE0_0" departPos="5.10" departPosLat="0.00" departSpeed="0.00" departDelay="14.00" arrival="194.00" arrivalLane="gneE1_1" arrivalPos="100.00" arrivalPosLat="0.00" arrivalSpeed="13.89" duration="173.00" routeLength="992.49" waitingTime="72.00" waitingCount="4" stopTime="0.00" timeLoss="101.38" rerouteNo="1" devices="vehroute_type1.7 tripinfo_type1.7 routing_type1.7" vType="car" speedFactor="1.00" vaporized=""/>
    <tripinfo id="type1.8" depart="24.00" departLane="gneE0_0" departPos="5.10" departPosLat="0.00" departSpeed="0.00" departDelay="16.00" arrival="196.00" arrivalLane="gneE1_1" arrivalPos="100.00" arrivalPosLat="0.00" arrivalSpeed="13.89" duration="172.00" routeLength="992.49" waitingTime="72.00" waitingCount="4" stopTime="0.00" timeLoss="99.82" rerouteNo="1" devices="vehroute_type1.8 tripinfo_type1.8 routing_type1.8" vType="car" speedFactor="1.00" vaporized=""/>
    <tripinfo id="type1.9" depart="27.00" departLane="gneE0_0" departPos="5.10" departPosLat="0.00" departSpeed="0.00" departDelay="18.00" arrival="197.00" arrivalLane="gneE1_1" arrivalPos="100.00" arrivalPosLat="0.00" arrivalSpeed="13.89" duration="170.00" routeLength="992.49" waitingTime="70.00" waitingCount="4" stopTime="0.00" timeLoss="98.25" rerouteNo="1" devices="vehroute_type1.9 tripinfo_type1.9 routing_type1.9" vType="car" speedFactor="1.00" vaporized=""/>
    <tripinfo id="type1.10" depart="30.00" departLane="gneE0_0" departPos="5.10" departPosLat="0.00" departSpeed="0.00" departDelay="20.00" arrival="199.00" arrivalLane="gneE1_1" arrivalPos="100.00" arrivalPosLat="0.00" arrivalSpeed="13.89" duration="169.00" routeLength="992.49" waitingTime="69.00" waitingCount="3" stopTime="0.00" timeLoss="96.68" rerouteNo="1" devices="vehroute_type1.10 tripinfo_type1.10 routing_type1.10" vType="car" speedFactor="1.00" vaporized=""/>
    <tripinfo id="type1.11" depart="33.00" departLane="gneE0_0" departPos="5.10" departPosLat="0.00" departSpeed="0.00" departDelay="22.00" arrival="200.00" arrivalLane="gneE1_1" arrivalPos="100.00" arrivalPosLat="0.00" arrivalSpeed="13.89" duration="167.00" routeLength="992.49" waitingTime="74.00" waitingCount="3" stopTime="0.00" timeLoss="95.11" rerouteNo="1" devices="vehroute_type1.11 tripinfo_type1.11 routing_type1.11" vType="car" speedFactor="1.00" vaporized=""/>
    <tripinfo id="type1.12" depart="36.00" departLane="gneE0_0" departPos="5.10" departPosLat="0.00" departSpeed="0.00" departDelay="24.00" arrival="201.00" arrivalLane="gneE1_1" arrivalPos="100.00" arrivalPosLat="0.00" arrivalSpeed="13.89" duration="165.00" routeLength="992.49" waitingTime="71.00" waitingCount="3" stopTime="0.00" timeLoss="93.54" rerouteNo="1" devices="vehroute_type1.12 tripinfo_type1.12 routing_type1.12" vType="car" speedFactor="1.00" vaporized=""/>
    <tripinfo id="type1.13" depart="39.00" departLane="gneE0_0" departPos="5.10" departPosLat="0.00" departSpeed="0.00" departDelay="26.00" arrival="203.00" arrivalLane="gneE1_1" arrivalPos="100.00" arrivalPosLat="0.00" arrivalSpeed="13.89" duration="164.00" routeLength="992.49" waitingTime="70.00" waitingCount="3" stopTime="0.00" timeLoss="91.98" rerouteNo="1" devices="vehroute_type1.13 tripinfo_type1.13 routing_type1.13" vType="car" speedFactor="1.00" vaporized=""/>
    <tripinfo id="type1.14" depart="42.00" departLane="gneE0_0" departPos="5.10" departPosLat="0.00" departSpeed="0.00" departDelay="28.00" arrival="204.00" arrivalLane="gneE1_1" arrivalPos="100.00" arrivalPosLat="0.00" arrivalSpeed="13.89" duration="162.00" routeLength="995.74" waitingTime="69.00" waitingCount="3" stopTime="0.00" timeLoss="90.17" rerouteNo="1" devices="vehroute_type1.14 tripinfo_type1.14 routing_type1.14" vType="car" speedFactor="1.00" vaporized=""/>
    <tripinfo id="type1.15" depart="45.00" departLane="gneE0_0" departPos="5.10" departPosLat="0.00" departSpeed="0.00" departDelay="30.00" arrival="206.00" arrivalLane="gneE1_1" arrivalPos="100.00" arrivalPosLat="0.00" arrivalSpeed="13.89" duration="161.00" routeLength="995.74" waitingTime="66.00" waitingCount="3" stopTime="0.00" timeLoss="88.61" rerouteNo="1" devices="vehroute_type1.15 tripinfo_type1.15 routing_type1.15" vType="car" speedFactor="1.00" vaporized=""/>
    <tripinfo id="type1.16" depart="48.00" departLane="gneE0_0" departPos="5.10" departPosLat="0.00" departSpeed="0.00" departDelay="32.00" arrival="207.00" arrivalLane="gneE1_1" arrivalPos="100.00" arrivalPosLat="0.00" arrivalSpeed="13.89" duration="159.00" routeLength="995.74" waitingTime="65.00" waitingCount="3" stopTime="0.00" timeLoss="87.04" rerouteNo="1" devices="vehroute_type1.16 tripinfo_type1.16 routing_type1.16" vType="car" speedFactor="1.00" vaporized=""/>
    <tripinfo id="type1.17" depart="51.00" departLane="gneE0_0" departPos="5.10" departPosLat="0.00" departSpeed="0.00" departDelay="34.00" arrival="209.00" arrivalLane="gneE1_1" arrivalPos="100.00" arrivalPosLat="0.00" arrivalSpeed="13.89" duration="158.00" routeLength="995.74" waitingTime="60.00" waitingCount="3" stopTime="0.00" timeLoss="85.47" rerouteNo="1" devices="vehroute_type1.17 tripinfo_type1.17 routing_type1.17" vType="car" speedFactor="1.00" vaporized=""/>
    <tripinfo id="type1.18" depart="54.00" departLane="gneE0_0" departPos="5.10" departPosLat="0.00" departSpeed="0.00" departDelay="36.00" arrival="256.00" arrivalLane="gneE1_1" arrivalPos="100.00" arrivalPosLat="0.00" arrivalSpeed="13.89" duration="202.00" routeLength="995.74" waitingTime="102.00" waitingCount="4" stopTime="0.00" timeLoss="129.56" rerouteNo="1" devices="vehroute_type1.18 tripinfo_type1.18 routing_type1.18" vType="car" speedFactor="1.00" vaporized=""/>
    <tripinfo id="type1.19" depart="57.00" departLane="gneE0_0" departPos="5.10" departPosLat="0.00" departSpeed="0.00" departDelay="38.00" arrival="257.00" arrivalLane="gneE1_1" arrivalPos="100.00" arrivalPosLat="0.00" arrivalSpeed="13.89" duration="200.00" routeLength="995.74" waitingTime="99.00" waitingCount="4" stopTime="0.00" timeLoss="127.99" rerouteNo="1" devices="vehroute_type1.19 tripinfo_type1.19 routing_type1.19" vType="car" speedFactor="1.00" vaporized=""/>
    <tripinfo id="type1.20" depart="60.00" departLane="gneE0_0" departPos="5.10" departPosLat="0.00" departSpeed="0.00" departDelay="40.00" arrival="259.00" arrivalLane="gneE1_1" arrivalPos="100.00" arrivalPosLat="0.00" arrivalSpeed="13.89" duration="199.00" routeLength="995.74" waitingTime="98.00" waitingCount="4" stopTime="0.00" timeLoss="126.42" rerouteNo="1" devices="vehroute_type1.20 tripinfo_type1.20 routing_type1.20" vType="car" speedFactor="1.00" vaporized=""/>
    <tripinfo id="type1.21" depart="63.00" departLane="gneE0_0" departPos="5.10" departPosLat="0.00" departSpeed="0.00" departDelay="42.00" arrival="260.00" arrivalLane="gneE1_1" arrivalPos="100.00" arrivalPosLat="0.00" arrivalSpeed="13.89" duration="197.00" routeLength="995.74" waitingTime="95.00" waitingCount="4" stopTime="0.00" timeLoss="124.85" rerouteNo="1" devices="vehroute_type1.21 tripinfo_type1.21 routing_type1.21" vType="car" speedFactor="1.00" vaporized=""/>
    <tripinfo id="type1.22" depart="66.00" departLane="gneE0_0" departPos="5.10" departPosLat="0.00" departSpeed="0.00" departDelay="44.00" arrival="261.00" arrivalLane="gneE1_1" arrivalPos="100.00" arrivalPosLat="0.00" arrivalSpeed="13.89" duration="195.00" routeLength="995.74" waitingTime="93.00" waitingCount="4" stopTime="0.00" timeLoss="123.29" rerouteNo="1" devices="vehroute_type1.22 tripinfo_type1.22 routing_type1.22" vType="car" speedFactor="1.00" vaporized=""/>
    <tripinfo id="type1.23" depart="69.00" departLane="gneE0_0" departPos="5.10" departPosLat="0.00" departSpeed="0.00" departDelay="46.00" arrival="263.00" arrivalLane="gneE1_1" arrivalPos="100.00" arrivalPosLat="0.00" arrivalSpeed="13.89" duration="194.00" routeLength="995.74" waitingTime="91.00" waitingCount="4" stopTime="0.00" timeLoss="121.72" rerouteNo="1" devices="vehroute_type1.23 tripinfo_type1.23 routing_type1.23" vType="car" speedFactor="1.00" vaporized=""/>
    <tripinfo id="type1.24" depart="72.00" departLane="gneE0_0" departPos="5.10" departPosLat="0.00" departSpeed="0.00" departDelay="48.00" arrival="264.00" arrivalLane="gneE1_1" arrivalPos="100.00" arrivalPosLat="0.00" arrivalSpeed="13.89" duration="192.00" routeLength="995.74" waitingTime="90.00" waitingCount="4" stopTime="0.00" timeLoss="120.15" rerouteNo="1" devices="vehroute_type1.24 tripinfo_type1.24 routing_type1.24" vType="car" speedFactor="1.00" vaporized=""/>
    <tripinfo id="type1.25" depart="75.00" departLane="gneE0_0" departPos="5.10" departPosLat="0.00" departSpeed="0.00" departDelay="50.00" arrival="266.00" arrivalLane="gneE1_1" arrivalPos="100.00" arrivalPosLat="0.00" arrivalSpeed="13.89" duration="191.00" routeLength="995.74" waitingTime="89.00" waitingCount="4" stopTime="0.00" timeLoss="118.58" rerouteNo="1" devices="vehroute_type1.25 tripinfo_type1.25 routing_type1.25" vType="car" speedFactor="1.00" vaporized=""/>
    <tripinfo id="type1.26" depart="78.00" departLane="gneE0_0" departPos="5.10" departPosLat="0.00" departSpeed="0.00" departDelay="52.00" arrival="267.00" arrivalLane="gneE1_1" arrivalPos="100.00" arrivalPosLat="0.00" arrivalSpeed="13.89" duration="189.00" routeLength="995.74" waitingTime="86.00" waitingCount="4" stopTime="0.00" timeLoss="117.02" rerouteNo="1" devices="vehroute_type1.26 tripinfo_type1.26 routing_type1.26" vType="car" speedFactor="1.00" vaporized=""/>
    <tripinfo id="type1.47" depart="147.00" departLane="gneE0_0" departPos="5.10" departPosLat="0.00" departSpeed="0.00" departDelay="100.00" arrival="269.00" arrivalLane="gneE1_1" arrivalPos="100.00" arrivalPosLat="0.00" arrivalSpeed="13.89" duration="122.00" routeLength="996.75" waitingTime="33.00" waitingCount="2" stopTime="0.00" timeLoss="49.38" rerouteNo="2" devices="vehroute_type1.47 tripinfo_type1.47 routing_type1.47" vType="car" speedFactor="1.00" vaporized=""/>
    <tripinfo id="type1.48" depart="150.00" departLane="gneE0_0" departPos="5.10" departPosLat="0.00" departSpeed="0.00" departDelay="102.00" arrival="270.00" arrivalLane="gneE1_1" arrivalPos="100.00" arrivalPosLat="0.00" arrivalSpeed="13.89" duration="120.00" routeLength="996.75" waitingTime="31.00" waitingCount="2" stopTime="0.00" timeLoss="47.82" rerouteNo="2" devices="vehroute_type1.48 tripinfo_type1.48 routing_type1.48" vType="car" speedFactor="1.00" vaporized=""/>
    <tripinfo id="type1.49" depart="155.00" departLane="gneE0_0" departPos="5.10" departPosLat="0.00" departSpeed="0.00" departDelay="106.00" arrival="271.00" arrivalLane="gneE1_1" arrivalPos="100.00" arrivalPosLat="0.00" arrivalSpeed="13.89" duration="116.00" routeLength="996.75" waitingTime="28.00" waitingCount="2" stopTime="0.00" timeLoss="44.25" rerouteNo="2" devices="vehroute_type1.49 tripinfo_type1.49 routing_type1.49" vType="car" speedFactor="1.00" vaporized=""/>
    <tripinfo id="type1.40" depart="126.00" departLane="gneE0_0" departPos="5.10" departPosLat="0.00" departSpeed="0.00" departDelay="86.00" arrival="295.00" arrivalLane="gneE1_0" arrivalPos="100.00" arrivalPosLat="0.00" arrivalSpeed="13.89" duration="169.00" routeLength="998.85" waitingTime="78.00" waitingCount="2" stopTime="0.00" timeLoss="96.95" rerouteNo="2" devices="vehroute_type1.40 tripinfo_type1.40 routing_type1.40" vType="car" speedFactor="1.00" vaporized=""/>
    <tripinfo id="type1.30" depart="96.00" departLane="gneE0_0" departPos="5.10" departPosLat="0.00" departSpeed="0.00" departDelay="66.00" arrival="310.00" arrivalLane="gneE1_0" arrivalPos="100.00" arrivalPosLat="0.00" arrivalSpeed="13.89" duration="214.00" routeLength="994.59" waitingTime="116.00" waitingCount="3" stopTime="0.00" timeLoss="141.95" rerouteNo="2" devices="vehroute_type1.30 tripinfo_type1.30 routing_type1.30" vType="car" speedFactor="1.00" vaporized=""/>
    <tripinfo id="type1.31" depart="99.00" departLane="gneE0_0" departPos="5.10" departPosLat="0.00" departSpeed="0.00" departDelay="68.00" arrival="311.00" arrivalLane="gneE1_0" arrivalPos="100.00" arrivalPosLat="0.00" arrivalSpeed="13.89" duration="212.00" routeLength="994.59" waitingTime="116.00" waitingCount="3" stopTime="0.00" timeLoss="140.38" rerouteNo="2" devices="vehroute_type1.31 tripinfo_type1.31 routing_type1.31" vType="car" speedFactor="1.00" vaporized=""/>
    <tripinfo id="type1.32" depart="102.00" departLane="gneE0_0" departPos="5.10" departPosLat="0.00" departSpeed="0.00" departDelay="70.00" arrival="313.00" arrivalLane="gneE1_0" arrivalPos="100.00" arrivalPosLat="0.00" arrivalSpeed="13.89" duration="211.00" routeLength="994.59" waitingTime="117.00" waitingCount="3" stopTime="0.00" timeLoss="138.81" rerouteNo="2" devices="vehroute_type1.32 tripinfo_type1.32 routing_type1.32" vType="car" speedFactor="1.00" vaporized=""/>
    <tripinfo id="type1.33" depart="105.00" departLane="gneE0_0" departPos="5.10" departPosLat="0.00" departSpeed="0.00" departDelay="72.00" arrival="314.00" arrivalLane="gneE1_0" arrivalPos="100.00" arrivalPosLat="0.00" arrivalSpeed="13.89" duration="209.00" routeLength="994.59" waitingTime="115.00" waitingCount="3" stopTime="0.00" timeLoss="137.25" rerouteNo="2" devices="vehroute_type1.33 tripinfo_type1.33 routing_type1.33" vType="car" speedFactor="1.00" vaporized=""/>
    <tripinfo id="type1.34" depart="108.00" departLane="gneE0_0" departPos="5.10" departPosLat="0.00" departSpeed="0.00" departDelay="74.00" arrival="316.00" arrivalLane="gneE1_0" arrivalPos="100.00" arrivalPosLat="0.00" arrivalSpeed="13.89" duration="208.00" routeLength="994.59" waitingTime="113.00" waitingCount="3" stopTime="0.00" timeLoss="135.68" rerouteNo="2" devices="vehroute_type1.34 tripinfo_type1.34 routing_type1.34" vType="car" speedFactor="1.00" vaporized=""/>
    <tripinfo id="type1.35" depart="111.00" departLane="gneE0_0" departPos="5.10" departPosLat="0.00" departSpeed="0.00" departDelay="76.00" arrival="317.00" arrivalLane="gneE1_0" arrivalPos="100.00" arrivalPosLat="0.00" arrivalSpeed="13.89" duration="206.00" routeLength="994.59" waitingTime="110.00" waitingCount="3" stopTime="0.00" timeLoss="134.11" rerouteNo="2" devices="vehroute_type1.35 tripinfo_type1.35 routing_type1.35" vType="car" speedFactor="1.00" vaporized=""/>
    <tripinfo id="type1.36" depart="114.00" departLane="gneE0_0" departPos="5.10" departPosLat="0.00" departSpeed="0.00" departDelay="78.00" arrival="319.00" arrivalLane="gneE1_0" arrivalPos="100.00" arrivalPosLat="0.00" arrivalSpeed="13.89" duration="205.00" routeLength="994.59" waitingTime="109.00" waitingCount="3" stopTime="0.00" timeLoss="132.92" rerouteNo="2" devices="vehroute_type1.36 tripinfo_type1.36 routing_type1.36" vType="car" speedFactor="1.00" vaporized=""/>
    <tripinfo id="type1.37" depart="117.00" departLane="gneE0_0" departPos="5.10" departPosLat="0.00" departSpeed="0.00" departDelay="80.00" arrival="325.00" arrivalLane="gneE1_0" arrivalPos="100.00" arrivalPosLat="0.00" arrivalSpeed="13.89" duration="208.00" routeLength="994.59" waitingTime="106.00" waitingCount="3" stopTime="0.00" timeLoss="135.91" rerouteNo="2" devices="vehroute_type1.37 tripinfo_type1.37 routing_type1.37" vType="car" speedFactor="1.00" vaporized=""/>
    <tripinfo id="type1.50" depart="160.00" departLane="gneE0_0" departPos="5.10" departPosLat="0.00" departSpeed="0.00" departDelay="110.00" arrival="326.00" arrivalLane="gneE1_1" arrivalPos="100.00" arrivalPosLat="0.00" arrivalSpeed="13.89" duration="166.00" routeLength="996.75" waitingTime="74.00" waitingCount="3" stopTime="0.00" timeLoss="93.49" rerouteNo="2" devices="vehroute_type1.50 tripinfo_type1.50 routing_type1.50" vType="car" speedFactor="1.00" vaporized=""/>
    <tripinfo id="type1.38" depart="120.00" departLane="gneE0_0" departPos="5.10" departPosLat="0.00" departSpeed="0.00" departDelay="82.00" arrival="326.00" arrivalLane="gneE1_0" arrivalPos="100.00" arrivalPosLat="0.00" arrivalSpeed="13.89" duration="206.00" routeLength="994.59" waitingTime="105.00" waitingCount="3" stopTime="0.00" timeLoss="134.35" rerouteNo="2" devices="vehroute_type1.38 tripinfo_type1.38 routing_type1.38" vType="car" speedFactor="1.00" vaporized=""/>
    <tripinfo id="type1.27" depart="81.00" departLane="gneE0_0" departPos="5.10" departPosLat="0.00" departSpeed="0.00" departDelay="54.00" arrival="327.00" arrivalLane="gneE1_1" arrivalPos="100.00" arrivalPosLat="0.00" arrivalSpeed="13.89" duration="246.00" routeLength="995.74" waitingTime="139.00" waitingCount="5" stopTime="0.00" timeLoss="173.99" rerouteNo="1" devices="vehroute_type1.27 tripinfo_type1.27 routing_type1.27" vType="car" speedFactor="1.00" vaporized=""/>
    <tripinfo id="type1.39" depart="123.00" departLane="gneE0_0" departPos="5.10" departPosLat="0.00" departSpeed="0.00" departDelay="84.00" arrival="328.00" arrivalLane="gneE1_0" arrivalPos="100.00" arrivalPosLat="0.00" arrivalSpeed="13.89" duration="205.00" routeLength="994.59" waitingTime="102.00" waitingCount="3" stopTime="0.00" timeLoss="132.78" rerouteNo="2" devices="vehroute_type1.39 tripinfo_type1.39 routing_type1.39" vType="car" speedFactor="1.00" vaporized=""/>
    <tripinfo id="type1.28" depart="84.00" departLane="gneE0_0" departPos="5.10" departPosLat="0.00" departSpeed="0.00" departDelay="56.00" arrival="329.00" arrivalLane="gneE1_1" arrivalPos="100.00" arrivalPosLat="0.00" arrivalSpeed="13.89" duration="245.00" routeLength="995.74" waitingTime="138.00" waitingCount="5" stopTime="0.00" timeLoss="172.42" rerouteNo="1" devices="vehroute_type1.28 tripinfo_type1.28 routing_type1.28" vType="car" speedFactor="1.00" vaporized=""/>
    <tripinfo id="type1.53" depart="175.00" departLane="gneE0_0" departPos="5.10" departPosLat="0.00" departSpeed="0.00" departDelay="122.00" arrival="329.00" arrivalLane="gneE1_0" arrivalPos="100.00" arrivalPosLat="0.00" arrivalSpeed="13.89" duration="154.00" routeLength="995.02" waitingTime="55.00" waitingCount="3" stopTime="0.00" timeLoss="82.18" rerouteNo="3" devices="vehroute_type1.53 tripinfo_type1.53 routing_type1.53" vType="car" speedFactor="1.00" vaporized=""/>
    <tripinfo id="type1.29" depart="87.00" departLane="gneE0_0" departPos="5.10" departPosLat="0.00" departSpeed="0.00" departDelay="58.00" arrival="330.00" arrivalLane="gneE1_1" arrivalPos="100.00" arrivalPosLat="0.00" arrivalSpeed="13.89" duration="243.00" routeLength="995.74" waitingTime="138.00" waitingCount="5" stopTime="0.00" timeLoss="170.85" rerouteNo="1" devices="vehroute_type1.29 tripinfo_type1.29 routing_type1.29" vType="car" speedFactor="1.00" vaporized=""/>
    <tripinfo id="type1.58" depart="191.00" departLane="gneE0_0" departPos="5.10" departPosLat="0.00" departSpeed="0.00" departDelay="133.00" arrival="331.00" arrivalLane="gneE1_0" arrivalPos="100.00" arrivalPosLat="0.00" arrivalSpeed="13.89" duration="140.00" routeLength="995.02" waitingTime="42.00" waitingCount="3" stopTime="0.00" timeLoss="67.61" rerouteNo="3" devices="vehroute_type1.58 tripinfo_type1.58 routing_type1.58" vType="car" speedFactor="1.00" vaporized=""/>
    <tripinfo id="type1.59" depart="195.00" departLane="gneE0_0" departPos="5.10" departPosLat="0.00" departSpeed="0.00" departDelay="136.00" arrival="332.00" arrivalLane="gneE1_0" arrivalPos="100.00" arrivalPosLat="0.00" arrivalSpeed="13.89" duration="137.00" routeLength="995.02" waitingTime="42.00" waitingCount="2" stopTime="0.00" timeLoss="65.04" rerouteNo="3" devices="vehroute_type1.59 tripinfo_type1.59 routing_type1.59" vType="car" speedFactor="1.00" vaporized=""/>
    <tripinfo id="type1.60" depart="199.00" departLane="gneE0_0" departPos="5.10" departPosLat="0.00" departSpeed="0.00" departDelay="139.00" arrival="334.00" arrivalLane="gneE1_0" arrivalPos="100.00" arrivalPosLat="0.00" arrivalSpeed="13.89" duration="135.00" routeLength="995.02" waitingTime="39.00" waitingCount="2" stopTime="0.00" timeLoss="62.48" rerouteNo="2" devices="vehroute_type1.60 tripinfo_type1.60 routing_type1.60" vType="car" speedFactor="1.00" vaporized=""/>
    <tripinfo id="type1.61" depart="203.00" departLane="gneE0_0" departPos="5.10" departPosLat="0.00" departSpeed="0.00" departDelay="142.00" arrival="335.00" arrivalLane="gneE1_0" arrivalPos="100.00" arrivalPosLat="0.00" arrivalSpeed="13.89" duration="132.00" routeLength="995.02" waitingTime="37.00" waitingCount="2" stopTime="0.00" timeLoss="59.91" rerouteNo="2" devices="vehroute_type1.61 tripinfo_type1.61 routing_type1.61" vType="car" speedFactor="1.00" vaporized=""/>
    <tripinfo id="type1.62" depart="207.00" departLane="gneE0_0" departPos="5.10" departPosLat="0.00" departSpeed="0.00" departDelay="145.00" arrival="336.00" arrivalLane="gneE1_0" arrivalPos="100.00" arrivalPosLat="0.00" arrivalSpeed="13.89" duration="129.00" routeLength="995.02" waitingTime="34.00" waitingCount="2" stopTime="0.00" timeLoss="57.34" rerouteNo="2" devices="vehroute_type1.62 tripinfo_type1.62 routing_type1.62" vType="car" speedFactor="1.00" vaporized=""/>
    <tripinfo id="type1.63" depart="210.00" departLane="gneE0_0" departPos="5.10" departPosLat="0.00" departSpeed="0.00" departDelay="147.00" arrival="338.00" arrivalLane="gneE1_0" arrivalPos="100.00" arrivalPosLat="0.00" arrivalSpeed="13.89" duration="128.00" routeLength="995.02" waitingTime="33.00" waitingCount="2" stopTime="0.00" timeLoss="55.77" rerouteNo="2" devices="vehroute_type1.63 tripinfo_type1.63 routing_type1.63" vType="car" speedFactor="1.00" vaporized=""/>
    <tripinfo id="type1.64" depart="213.00" departLane="gneE0_0" departPos="5.10" departPosLat="0.00" departSpeed="0.00" departDelay="149.00" arrival="339.00" arrivalLane="gneE1_0" arrivalPos="100.00" arrivalPosLat="0.00" arrivalSpeed="13.89" duration="126.00" routeLength="995.02" waitingTime="31.00" waitingCount="2" stopTime="0.00" timeLoss="54.20" rerouteNo="2" devices="vehroute_type1.64 tripinfo_type1.64 routing_type1.64" vType="car" speedFactor="1.00" vaporized=""/>
    <tripinfo id="type1.65" depart="216.00" departLane="gneE0_0" departPos="5.10" departPosLat="0.00" departSpeed="0.00" departDelay="151.00" arrival="341.00" arrivalLane="gneE1_0" arrivalPos="100.00" arrivalPosLat="0.00" arrivalSpeed="13.89" duration="125.00" routeLength="995.02" waitingTime="30.00" waitingCount="2" stopTime="0.00" timeLoss="52.64" rerouteNo="2" devices="vehroute_type1.65 tripinfo_type1.65 routing_type1.65" vType="car" speedFactor="1.00" vaporized=""/>
    <tripinfo id="type1.66" depart="219.00" departLane="gneE0_0" departPos="5.10" departPosLat="0.00" departSpeed="0.00" departDelay="153.00" arrival="342.00" arrivalLane="gneE1_0" arrivalPos="100.00" arrivalPosLat="0.00" arrivalSpeed="13.89" duration="123.00" routeLength="995.02" waitingTime="28.00" waitingCount="2" stopTime="0.00" timeLoss="51.07" rerouteNo="2" devices="vehroute_type1.66 tripinfo_type1.66 routing_type1.66" vType="car" speedFactor="1.00" vaporized=""/>
    <tripinfo id="type1.67" depart="222.00" departLane="gneE0_0" departPos="5.10" departPosLat="0.00" departSpeed="0.00" departDelay="155.00" arrival="344.00" arrivalLane="gneE1_0" arrivalPos="100.00" arrivalPosLat="0.00" arrivalSpeed="13.89" duration="122.00" routeLength="995.02" waitingTime="26.00" waitingCount="2" stopTime="0.00" timeLoss="49.51" rerouteNo="2" devices="vehroute_type1.67 tripinfo_type1.67 routing_type1.67" vType="car" speedFactor="1.00" vaporized=""/>
    <tripinfo id="type1.51" depart="165.00" departLane="gneE0_0" departPos="5.10" departPosLat="0.00" departSpeed="0.00" departDelay="114.00" arrival="345.00" arrivalLane="gneE1_1" arrivalPos="100.00" arrivalPosLat="0.00" arrivalSpeed="13.89" duration="180.00" routeLength="996.75" waitingTime="90.00" waitingCount="3" stopTime="0.00" timeLoss="107.88" rerouteNo="2" devices="vehroute_type1.51 tripinfo_type1.51 routing_type1.51" vType="car" speedFactor="1.00" vaporized=""/>
    <tripinfo id="type1.41" depart="129.00" departLane="gneE0_0" departPos="5.10" departPosLat="0.00" departSpeed="0.00" departDelay="88.00" arrival="345.00" arrivalLane="gneE1_0" arrivalPos="100.00" arrivalPosLat="0.00" arrivalSpeed="13.89" duration="216.00" routeLength="998.85" waitingTime="120.00" waitingCount="3" stopTime="0.00" timeLoss="144.00" rerouteNo="2" devices="vehroute_type1.41 tripinfo_type1.41 routing_type1.41" vType="car" speedFactor="1.00" vaporized=""/>
    <tripinfo id="type1.52" depart="170.00" departLane="gneE0_0" departPos="5.10" departPosLat="0.00" departSpeed="0.00" departDelay="118.00" arrival="347.00" arrivalLane="gneE1_1" arrivalPos="100.00" arrivalPosLat="0.00" arrivalSpeed="13.89" duration="177.00" routeLength="996.75" waitingTime="86.00" waitingCount="3" stopTime="0.00" timeLoss="104.31" rerouteNo="2" devices="vehroute_type1.52 tripinfo_type1.52 routing_type1.52" vType="car" speedFactor="1.00" vaporized=""/>
    <tripinfo id="type1.42" depart="132.00" departLane="gneE0_0" departPos="5.10" departPosLat="0.00" departSpeed="0.00" departDelay="90.00" arrival="347.00" arrivalLane="gneE1_0" arrivalPos="100.00" arrivalPosLat="0.00" arrivalSpeed="13.89" duration="215.00" routeLength="998.85" waitingTime="119.00" waitingCount="3" stopTime="0.00" timeLoss="142.43" rerouteNo="2" devices="vehroute_type1.42 tripinfo_type1.42 routing_type1.42" vType="car" speedFactor="1.00" vaporized=""/>