<?xml version="1.0" encoding="UTF-8"?>

<!-- generated on 2026-01-22T16:25:28.586011+01:00 by Eclipse SUMO sumo v1_25_0+1143-5cfd67bbee0
This data file and the accompanying materials
are made available under the terms of the Eclipse Public License v2.0
which accompanies this distribution, and is available at
http://www.eclipse.org/legal/epl-v20.html
This file may also be made available under the following Secondary
Licenses when the conditions for such availability set forth in the Eclipse
Public License 2.0 are satisfied: GNU General Public License, version 2
or later which is available at
https://www.gnu.org/licenses/old-licenses/gpl-2.0-standalone.html
SPDX-License-Identifier: EPL-2.0 OR GPL-2.0-or-later
<sumoConfiguration xmlns:xsi="http://www.w3.org/2001/XMLSchema-instance" xsi:noNamespaceSchemaLocation="http://sumo.dlr.de/xsd/sumoConfiguration.xsd">

    <input>
        <net-file value="motorway.net.xml"/>
        <route-files value="input_routes.rou.xml"/>
    </input>

    <output>
        <write-license value="true"/>
        <tripinfo-output value="tripinfos.xml"/>
        <lanechange-output value="lanechanges.xml"/>
    </output>

    <processing>
        <lateral-resolution value="0.8"/>
        <default.speeddev value="0"/>
    </processing>

    <report>
        <xml-validation value="never"/>
        <duration-log.disable value="true"/>
        <no-step-log value="true"/>
    </report>

</sumoConfiguration>
-->

<tripinfos xmlns:xsi="http://www.w3.org/2001/XMLSchema-instance" xsi:noNamespaceSchemaLocation="http://sumo.dlr.de/xsd/tripinfo_file.xsd">
    <tripinfo id="overtaking" depart="1.00" departLane="beg_0" departPos="2696.00" departPosLat="0.00" departSpeed="36.00" departDelay="0.00" arrival="12.00" arrivalLane="beg_2" arrivalPos="2996.00" arrivalPosLat="0.00" arrivalSpeed="29.46" duration="11.00" routeLength="300.00" waitingTime="0.00" waitingCount="0" stopTime="0.00" timeLoss="2.29" rerouteNo="0" devices="tripinfo_overtaking" vType="DEFAULT_VEHTYPE" speedFactor="1.00" vaporized=""/>
    <tripinfo id="overtaking2" depart="10.00" departLane="beg_0" departPos="2746.00" departPosLat="0.00" departSpeed="36.00" departDelay="0.00" arrival="23.00" arrivalLane="beg_2" arrivalPos="2996.00" arrivalPosLat="0.00" arrivalSpeed="21.31" duration="13.00" routeLength="250.00" waitingTime="0.00" waitingCount="0" stopTime="0.00" timeLoss="5.52" rerouteNo="0" devices="tripinfo_overtaking2" vType="DEFAULT_VEHTYPE" speedFactor="1.00" vaporized=""/>
    <tripinfo id="stopped" depart="0.00" departLane="beg_0" departPos="2946.00" departPosLat="0.00" departSpeed="0.00" departDelay="0.00" arrival="106.00" arrivalLane="beg_0" arrivalPos="2996.00" arrivalPosLat="0.10" arrivalSpeed="15.60" duration="106.00" routeLength="50.00" waitingTime="0.00" waitingCount="0" stopTime="100.00" timeLoss="0.00" rerouteNo="0" devices="tripinfo_stopped" vType="DEFAULT_VEHTYPE" speedFactor="1.00" vaporized=""/>
    <tripinfo id="stopped2" depart="0.00" departLane="beg_1" departPos="2946.00" departPosLat="0.00" departSpeed="0.00" departDelay="0.00" arrival="106.00" arrivalLane="beg_1" arrivalPos="2996.00" arrivalPosLat="0.00" arrivalSpeed="15.60" duration="106.00" routeLength="50.00" waitingTime="0.00" waitingCount="0" stopTime="100.00" timeLoss="0.00" rerouteNo="0" devices="tripinfo_stopped2" vType="DEFAULT_VEHTYPE" speedFactor="1.00" vaporized=""/>
</tripinfos>
