<?xml version="1.0" encoding="UTF-8"?>

<!-- generated on 05/02/13 14:13:35 by SUMO sumo Version 0.17.0
<?xml version="1.0" encoding="UTF-8"?>

<configuration xmlns:xsi="http://www.w3.org/2001/XMLSchema-instance" xsi:noNamespaceSchemaLocation="http://sumo.sf.net/xsd/sumoConfiguration.xsd">

    <input>
        <net-file value="net.net.xml"/>
        <additional-files value="input_routes.rou.xml,input_additional.add.xml"/>
    </input>

    <time>
        <begin value="0"/>
        <end value="150"/>
    </time>

    <report>
        <no-duration-log value="true"/>
        <no-step-log value="true"/>
    </report>

</configuration>
-->

<meandata xmlns:xsi="http://www.w3.org/2001/XMLSchema-instance" xsi:noNamespaceSchemaLocation="http://sumo.sf.net/xsd/meandata_file.xsd">
    <interval begin="0.00" end="60.00" id="dump_60">
        <edge id="1si">
            <lane id="1si_0" sampledSeconds="15.00" traveltime="42.10" density="1.05" occupancy="0.32" waitingTime="0.00" speed="5.63" departed="2" arrived="0" entered="0" left="0" laneChangedFrom="2" laneChangedTo="0"/>
            <lane id="1si_1" sampledSeconds="13.00" traveltime="32.45" density="0.91" occupancy="0.27" waitingTime="0.00" speed="7.31" departed="0" arrived="0" entered="0" left="0" laneChangedFrom="2" laneChangedTo="2"/>
            <lane id="1si_2" sampledSeconds="63.88" traveltime="150.30" density="4.49" occupancy="1.35" waitingTime="40.00" speed="1.58" departed="0" arrived="0" entered="0" left="2" laneChangedFrom="0" laneChangedTo="2"/>
        </edge>
        <edge id="4o">
            <lane id="4o_0" sampledSeconds="23.29" traveltime="82.27" density="0.79" occupancy="0.24" waitingTime="0.00" speed="5.94" departed="0" arrived="0" entered="2" left="0" laneChangedFrom="0" laneChangedTo="0"/>
        </edge>
    </interval>
    <interval begin="60.00" end="120.00" id="dump_60">
        <edge id="4o">
            <lane id="4o_0" sampledSeconds="100.00" traveltime="69.81" density="3.41" occupancy="1.02" waitingTime="0.00" speed="7.00" departed="0" arrived="1" entered="0" left="0" laneChangedFrom="0" laneChangedTo="0"/>
        </edge>
    </interval>
    <interval begin="120.00" end="150.00" id="dump_60">
        <edge id="4o">
            <lane id="4o_0" sampledSeconds="28.74" traveltime="97.73" density="1.96" occupancy="0.59" waitingTime="0.00" speed="5.00" departed="0" arrived="1" entered="0" left="0" laneChangedFrom="0" laneChangedTo="0"/>
        </edge>
    </interval>
</meandata>
