<?xml version="1.0" encoding="UTF-8"?>

<!-- generated on 2024-04-09 08:56:22 by Eclipse SUMO sumo Version v1_19_0+1728-849a8b2d627
<configuration xmlns:xsi="http://www.w3.org/2001/XMLSchema-instance" xsi:noNamespaceSchemaLocation="http://sumo.dlr.de/xsd/sumoConfiguration.xsd">

    <input>
        <net-file value="input_net.net.xml"/>
        <route-files value="input_routes.rou.xml"/>
    </input>

    <output>
        <vehroute-output value="vehroutes.xml"/>
        <save-state.times value="50"/>
        <save-state.files value="state.xml"/>
    </output>

    <report>
        <duration-log.disable value="true"/>
        <no-step-log value="true"/>
    </report>

</configuration>
-->

<snapshot xmlns:xsi="http://www.w3.org/2001/XMLSchema-instance" xsi:noNamespaceSchemaLocation="http://sumo.dlr.de/xsd/state_file.xsd" version="v1_19_0+1728-849a8b2d627" time="50.00" type="micro">
    <route id="!0" state="0" edges="0/1to1/1 3/1to4/1"/>
    <route id="!0.0!var#1" state="0" edges="0/1to1/1 1/1to2/1 2/1to3/1 3/1to4/1"/>
    <route id="!0.1!var#1" state="0" edges="0/1to1/1 1/1to2/1 2/1to3/1 3/1to4/1"/>
    <route id="!0.2!var#1" state="0" edges="0/1to1/1 1/1to2/1 2/1to3/1 3/1to4/1"/>
    <route id="!0.3!var#1" state="0" edges="0/1to1/1 1/1to2/1 2/1to3/1 3/1to4/1"/>
    <route id="!0.4!var#1" state="0" edges="0/1to1/1 1/1to2/1 2/1to3/1 3/1to4/1"/>
    <delay number="5" begin="5" end="0" depart="5.00" time="0.00"/>
    <vType id="DEFAULT_VEHTYPE" sigma="0"/>
    <vehicle id="0.0" depart="1.15" route="!0.0!var#1" distance="400 1" speedFactor="1.0600" reroute="1" state="262304 2000 1 5.10 0 3.93 49000 0 0" pos="61.60 56.60 10.60" speed="10.60 10.60" angle="90.00" posLat="0.00" waitingTime="100000 0">
        <device id="vehroute_0.0" state="0 0.00 0.00 5.10 1 !NULL 2000 !0 device.rerouting -1 0"/>
        <device id="routing_0.0" state="0"/>
    </vehicle>
    <vehicle id="0.1" depart="4.54" route="!0.1!var#1" distance="400 1" speedFactor="0.9383" reroute="1" state="262304 5000 1 5.10 0 1.34 49000 0 0" pos="5.40 0.40 9.38" speed="9.38 9.38" angle="90.00" posLat="0.00" waitingTime="100000 0">
        <device id="vehroute_0.1" state="0 0.00 0.00 5.10 1 !NULL 5000 !0 device.rerouting -1 0"/>
        <device id="routing_0.1" state="0"/>
    </vehicle>
    <vehicle id="0.2" depart="35.45" route="!0.2!var#1" distance="0 1" speedFactor="1.0104" reroute="1" state="262304 36000 0 5.10 0 1.46 49000 0 0" pos="121.74 116.74 10.10" speed="10.10 10.10" angle="90.00" posLat="0.00" waitingTime="100000 0">
        <device id="vehroute_0.2" state="0 0.00 0.00 5.10 1 !NULL 36000 !0 device.rerouting -1 0"/>
        <device id="routing_0.2" state="0"/>
    </vehicle>
    <vehicle id="0.3" depart="42.55" route="!0.3!var#1" distance="0 1" speedFactor="1.0827" reroute="1" state="262304 43000 0 5.10 0 1.60 49000 0 0" pos="52.75 47.75 10.83" speed="10.83 10.83" angle="90.00" posLat="0.00" waitingTime="100000 0">
        <device id="vehroute_0.3" state="0 0.00 0.00 5.10 1 !NULL 43000 !0 device.rerouting -1 0"/>
        <device id="routing_0.3" state="0"/>
    </vehicle>
    <vehicle id="0.4" depart="47.83" route="!0.4!var#1" distance="0 1" speedFactor="1.0303" reroute="1" state="262304 48000 0 5.10 0 0.75 49000 0 0" pos="7.70 2.70 2.60" speed="2.60 0.00" angle="90.00" posLat="0.00" waitingTime="100000 0">
        <device id="vehroute_0.4" state="0 0.00 0.00 5.10 1 !NULL 48000 !0 device.rerouting -1 0"/>
        <device id="routing_0.4" state="0"/>
    </vehicle>
    <flowState id="0" begin="0.00" period="exp(0.10)" next="79.15" end="200.00" route="!0" done="5" index="5" reroute="1"/>
    <lane id="0/1to1/1_0">
        <vehicles value="0.4 0.3 0.2"/>
    </lane>
    <lane id="1/1to2/1_0">
        <vehicles value="0.1 0.0"/>
    </lane>
    <tlLogic id="0/0" programID="0" phase="2" duration="16000"/>
    <tlLogic id="0/1" programID="0" phase="4" duration="7000"/>
    <tlLogic id="0/2" programID="0" phase="2" duration="16000"/>
    <tlLogic id="1/0" programID="0" phase="4" duration="7000"/>
    <tlLogic id="1/1" programID="0" phase="4" duration="7000"/>
    <tlLogic id="1/2" programID="0" phase="4" duration="7000"/>
    <tlLogic id="2/0" programID="0" phase="4" duration="7000"/>
    <tlLogic id="2/1" programID="0" phase="4" duration="7000"/>
    <tlLogic id="2/2" programID="0" phase="4" duration="7000"/>
    <tlLogic id="3/0" programID="0" phase="4" duration="7000"/>
    <tlLogic id="3/1" programID="0" phase="4" duration="7000"/>
    <tlLogic id="3/2" programID="0" phase="4" duration="7000"/>
    <tlLogic id="4/0" programID="0" phase="2" duration="16000"/>
    <tlLogic id="4/1" programID="0" phase="4" duration="7000"/>
    <tlLogic id="4/2" programID="0" phase="2" duration="16000"/>
</snapshot>
