<?xml version="1.0" encoding="UTF-8"?>

<!-- generated on 2023-04-28 12:14:42 by Eclipse SUMO sumo Version v1_17_0+0071-cb2b077
<configuration xmlns:xsi="http://www.w3.org/2001/XMLSchema-instance" xsi:noNamespaceSchemaLocation="http://sumo.dlr.de/xsd/sumoConfiguration.xsd">

    <input>
        <net-file value="input_net.net.xml"/>
        <additional-files value="input_additional.add.xml"/>
        <load-state value="state.xml"/>
    </input>

    <output>
        <vehroute-output value="vehroutes2.xml"/>
    </output>

    <time>
        <end value="1200"/>
    </time>

    <report>
        <verbose value="true"/>
        <duration-log.disable value="true"/>
        <no-step-log value="true"/>
    </report>

</configuration>
-->

<routes xmlns:xsi="http://www.w3.org/2001/XMLSchema-instance" xsi:noNamespaceSchemaLocation="http://sumo.dlr.de/xsd/routes_file.xsd">
    <person id="persontrip_car" depart="2.00" arrival="155.00">
        <ride from="3/1to2/1" to="1/1to0/1" arrivalPos="200.00" lines="persontrip_car_0"/>
    </person>

    <vehicle id="persontrip_car_0" depart="triggered" arrivalPos="200.00" arrivalSpeed="0.00" arrival="155.00">
        <route edges="3/1to2/1 2/1to1/1 1/1to0/1"/>
    </vehicle>

    <person id="persontrip_car1" depart="2.00" arrival="159.00">
        <ride from="3/1to2/1" to="1/1to0/1" arrivalPos="200.00" lines="persontrip_car1_0"/>
    </person>

    <vehicle id="persontrip_car1_0" depart="triggered" arrivalPos="200.00" arrivalSpeed="0.00" arrival="159.00">
        <route edges="3/1to2/1 2/1to1/1 1/1to0/1"/>
    </vehicle>

    <person id="persontrip_car3" depart="160.00" arrival="329.00">
        <ride from="3/1to2/1" to="1/1to0/1" arrivalPos="200.00" lines="persontrip_car3_0"/>
    </person>

    <vehicle id="persontrip_car3_0" depart="triggered" arrivalPos="200.00" arrivalSpeed="0.00" arrival="329.00">
        <routeDistribution>
            <route replacedOnEdge="" reason="person:persontrip_car3" replacedAtTime="160.00" probability="0" edges="3/1to2/1"/>
            <route edges="3/1to2/1 2/1to1/1 1/1to0/1"/>
        </routeDistribution>
    </vehicle>

</routes>
