<?xml version="1.0" encoding="UTF-8"?>

<!-- generated on Fri Apr 15 15:02:10 2016 by SUMO Version dev-SVN-r20458
<?xml version="1.0" encoding="UTF-8"?>

<configuration xmlns:xsi="http://www.w3.org/2001/XMLSchema-instance" xsi:noNamespaceSchemaLocation="http://sumo.dlr.de/xsd/sumoConfiguration.xsd">

    <input>
        <net-file value="net.net.xml"/>
        <route-files value="input_routes.rou.xml"/>
    </input>

    <output>
        <tripinfo-output value="tripinfos.xml"/>
    </output>

    <report>
        <verbose value="true"/>
        <xml-validation value="never"/>
        <no-step-log value="true"/>
    </report>

    <mesoscopic>
        <mesosim value="true"/>
        <meso-taujj value="0.3"/>
        <meso-junction-control value="true"/>
    </mesoscopic>

</configuration>
-->

<tripinfos xmlns:xsi="http://www.w3.org/2001/XMLSchema-instance" xsi:noNamespaceSchemaLocation="http://sumo.dlr.de/xsd/tripinfo_file.xsd">
    <tripinfo id="flow.0" depart="0.00" departLane="" departPos="0.00" departSpeed="13.89" departDelay="0.00" arrival="336.00" arrivalLane="" arrivalPos="500.00" arrivalSpeed="13.89" duration="336.00" routeLength="1500.00" waitSteps="228" timeLoss="228.00" rerouteNo="0" devices="tripinfo_flow.0" vType="DEFAULT_VEHTYPE" vaporized=""/>
    <tripinfo id="flow.1" depart="1.00" departLane="" departPos="0.00" departSpeed="13.16" departDelay="0.00" arrival="338.00" arrivalLane="" arrivalPos="500.00" arrivalSpeed="13.89" duration="337.00" routeLength="1500.00" waitSteps="0" timeLoss="229.00" rerouteNo="0" devices="tripinfo_flow.1" vType="DEFAULT_VEHTYPE" vaporized=""/>
    <tripinfo id="flow.2" depart="2.00" departLane="" departPos="0.00" departSpeed="12.50" departDelay="0.00" arrival="340.00" arrivalLane="" arrivalPos="500.00" arrivalSpeed="13.89" duration="338.00" routeLength="1500.00" waitSteps="0" timeLoss="230.00" rerouteNo="0" devices="tripinfo_flow.2" vType="DEFAULT_VEHTYPE" vaporized=""/>
    <tripinfo id="flow.3" depart="3.00" departLane="" departPos="0.00" departSpeed="11.91" departDelay="0.00" arrival="342.00" arrivalLane="" arrivalPos="500.00" arrivalSpeed="13.89" duration="339.00" routeLength="1500.00" waitSteps="0" timeLoss="231.00" rerouteNo="0" devices="tripinfo_flow.3" vType="DEFAULT_VEHTYPE" vaporized=""/>
    <tripinfo id="flow.4" depart="4.00" departLane="" departPos="0.00" departSpeed="11.36" departDelay="0.00" arrival="344.00" arrivalLane="" arrivalPos="500.00" arrivalSpeed="13.89" duration="340.00" routeLength="1500.00" waitSteps="0" timeLoss="232.00" rerouteNo="0" devices="tripinfo_flow.4" vType="DEFAULT_VEHTYPE" vaporized=""/>
    <tripinfo id="flow.5" depart="5.00" departLane="" departPos="0.00" departSpeed="10.87" departDelay="0.00" arrival="346.00" arrivalLane="" arrivalPos="500.00" arrivalSpeed="13.89" duration="341.00" routeLength="1500.00" waitSteps="0" timeLoss="233.00" rerouteNo="0" devices="tripinfo_flow.5" vType="DEFAULT_VEHTYPE" vaporized=""/>
    <tripinfo id="flow.6" depart="8.00" departLane="" departPos="0.00" departSpeed="13.16" departDelay="2.00" arrival="348.00" arrivalLane="" arrivalPos="500.00" arrivalSpeed="13.89" duration="340.00" routeLength="1500.00" waitSteps="0" timeLoss="232.00" rerouteNo="0" devices="tripinfo_flow.6" vType="DEFAULT_VEHTYPE" vaporized=""/>
    <tripinfo id="flow.7" depart="9.00" departLane="" departPos="0.00" departSpeed="12.50" departDelay="2.00" arrival="350.00" arrivalLane="" arrivalPos="500.00" arrivalSpeed="13.89" duration="341.00" routeLength="1500.00" waitSteps="0" timeLoss="233.00" rerouteNo="0" devices="tripinfo_flow.7" vType="DEFAULT_VEHTYPE" vaporized=""/>
    <tripinfo id="flow.8" depart="10.00" departLane="" departPos="0.00" departSpeed="11.91" departDelay="2.00" arrival="352.00" arrivalLane="" arrivalPos="500.00" arrivalSpeed="13.89" duration="342.00" routeLength="1500.00" waitSteps="0" timeLoss="234.00" rerouteNo="0" devices="tripinfo_flow.8" vType="DEFAULT_VEHTYPE" vaporized=""/>
    <tripinfo id="flow.9" depart="12.00" departLane="" departPos="0.00" departSpeed="12.82" departDelay="3.00" arrival="354.00" arrivalLane="" arrivalPos="500.00" arrivalSpeed="13.89" duration="342.00" routeLength="1500.00" waitSteps="0" timeLoss="234.00" rerouteNo="0" devices="tripinfo_flow.9" vType="DEFAULT_VEHTYPE" vaporized=""/>
    <tripinfo id="flow.10" depart="13.00" departLane="" departPos="0.00" departSpeed="12.20" departDelay="3.00" arrival="356.00" arrivalLane="" arrivalPos="500.00" arrivalSpeed="13.89" duration="343.00" routeLength="1500.00" waitSteps="0" timeLoss="235.00" rerouteNo="0" devices="tripinfo_flow.10" vType="DEFAULT_VEHTYPE" vaporized=""/>
    <tripinfo id="flow.11" depart="15.00" departLane="" departPos="0.00" departSpeed="13.16" departDelay="4.00" arrival="358.00" arrivalLane="" arrivalPos="500.00" arrivalSpeed="13.89" duration="343.00" routeLength="1500.00" waitSteps="0" timeLoss="235.00" rerouteNo="0" devices="tripinfo_flow.11" vType="DEFAULT_VEHTYPE" vaporized=""/>
    <tripinfo id="flow.12" depart="16.00" departLane="" departPos="0.00" departSpeed="12.50" departDelay="4.00" arrival="360.00" arrivalLane="" arrivalPos="500.00" arrivalSpeed="13.89" duration="344.00" routeLength="1500.00" waitSteps="0" timeLoss="236.00" rerouteNo="0" devices="tripinfo_flow.12" vType="DEFAULT_VEHTYPE" vaporized=""/>
    <tripinfo id="flow.13" depart="17.00" departLane="" departPos="0.00" departSpeed="11.91" departDelay="4.00" arrival="362.00" arrivalLane="" arrivalPos="500.00" arrivalSpeed="13.89" duration="345.00" routeLength="1500.00" waitSteps="217" timeLoss="237.00" rerouteNo="0" devices="tripinfo_flow.13" vType="DEFAULT_VEHTYPE" vaporized=""/>
    <tripinfo id="flow.14" depart="19.00" departLane="" departPos="0.00" departSpeed="12.82" departDelay="5.00" arrival="364.00" arrivalLane="" arrivalPos="500.00" arrivalSpeed="13.89" duration="345.00" routeLength="1500.00" waitSteps="0" timeLoss="237.00" rerouteNo="0" devices="tripinfo_flow.14" vType="DEFAULT_VEHTYPE" vaporized=""/>
    <tripinfo id="flow.15" depart="20.00" departLane="" departPos="0.00" departSpeed="12.20" departDelay="5.00" arrival="366.00" arrivalLane="" arrivalPos="500.00" arrivalSpeed="13.89" duration="346.00" routeLength="1500.00" waitSteps="0" timeLoss="238.00" rerouteNo="0" devices="tripinfo_flow.15" vType="DEFAULT_VEHTYPE" vaporized=""/>
    <tripinfo id="flow.16" depart="22.00" departLane="" departPos="0.00" departSpeed="13.16" departDelay="6.00" arrival="368.00" arrivalLane="" arrivalPos="500.00" arrivalSpeed="13.89" duration="346.00" routeLength="1500.00" waitSteps="0" timeLoss="238.00" rerouteNo="0" devices="tripinfo_flow.16" vType="DEFAULT_VEHTYPE" vaporized=""/>
    <tripinfo id="flow.17" depart="23.00" departLane="" departPos="0.00" departSpeed="12.50" departDelay="6.00" arrival="370.00" arrivalLane="" arrivalPos="500.00" arrivalSpeed="13.89" duration="347.00" routeLength="1500.00" waitSteps="0" timeLoss="239.00" rerouteNo="0" devices="tripinfo_flow.17" vType="DEFAULT_VEHTYPE" vaporized=""/>
    <tripinfo id="flow.18" depart="24.00" departLane="" departPos="0.00" departSpeed="11.91" departDelay="6.00" arrival="372.00" arrivalLane="" arrivalPos="500.00" arrivalSpeed="13.89" duration="348.00" routeLength="1500.00" waitSteps="0" timeLoss="240.00" rerouteNo="0" devices="tripinfo_flow.18" vType="DEFAULT_VEHTYPE" vaporized=""/>
    <tripinfo id="flow.19" depart="26.00" departLane="" departPos="0.00" departSpeed="12.82" departDelay="7.00" arrival="374.00" arrivalLane="" arrivalPos="500.00" arrivalSpeed="13.89" duration="348.00" routeLength="1500.00" waitSteps="0" timeLoss="240.00" rerouteNo="0" devices="tripinfo_flow.19" vType="DEFAULT_VEHTYPE" vaporized=""/>
    <tripinfo id="flow.20" depart="27.00" departLane="" departPos="0.00" departSpeed="12.20" departDelay="7.00" arrival="376.00" arrivalLane="" arrivalPos="500.00" arrivalSpeed="13.89" duration="349.00" routeLength="1500.00" waitSteps="0" timeLoss="241.00" rerouteNo="0" devices="tripinfo_flow.20" vType="DEFAULT_VEHTYPE" vaporized=""/>
    <tripinfo id="flow.21" depart="29.00" departLane="" departPos="0.00" departSpeed="13.16" departDelay="8.00" arrival="378.00" arrivalLane="" arrivalPos="500.00" arrivalSpeed="13.89" duration="349.00" routeLength="1500.00" waitSteps="0" timeLoss="241.00" rerouteNo="0" devices="tripinfo_flow.21" vType="DEFAULT_VEHTYPE" vaporized=""/>
    <tripinfo id="flow.22" depart="30.00" departLane="" departPos="0.00" departSpeed="12.50" departDelay="8.00" arrival="380.00" arrivalLane="" arrivalPos="500.00" arrivalSpeed="13.89" duration="350.00" routeLength="1500.00" waitSteps="0" timeLoss="242.00" rerouteNo="0" devices="tripinfo_flow.22" vType="DEFAULT_VEHTYPE" vaporized=""/>
    <tripinfo id="flow.23" depart="31.00" departLane="" departPos="0.00" departSpeed="11.91" departDelay="8.00" arrival="382.00" arrivalLane="" arrivalPos="500.00" arrivalSpeed="13.89" duration="351.00" routeLength="1500.00" waitSteps="0" timeLoss="243.00" rerouteNo="0" devices="tripinfo_flow.23" vType="DEFAULT_VEHTYPE" vaporized=""/>
    <tripinfo id="flow.24" depart="33.00" departLane="" departPos="0.00" departSpeed="12.82" departDelay="9.00" arrival="384.00" arrivalLane="" arrivalPos="500.00" arrivalSpeed="13.89" duration="351.00" routeLength="1500.00" waitSteps="0" timeLoss="243.00" rerouteNo="0" devices="tripinfo_flow.24" vType="DEFAULT_VEHTYPE" vaporized=""/>
    <tripinfo id="flow.25" depart="34.00" departLane="" departPos="0.00" departSpeed="12.20" departDelay="9.00" arrival="386.00" arrivalLane="" arrivalPos="500.00" arrivalSpeed="13.89" duration="352.00" routeLength="1500.00" waitSteps="0" timeLoss="243.40" rerouteNo="0" devices="tripinfo_flow.25" vType="DEFAULT_VEHTYPE" vaporized=""/>
    <tripinfo id="flow.26" depart="36.00" departLane="" departPos="0.00" departSpeed="13.16" departDelay="10.00" arrival="387.00" arrivalLane="" arrivalPos="500.00" arrivalSpeed="13.89" duration="351.00" routeLength="1500.00" waitSteps="206" timeLoss="242.80" rerouteNo="0" devices="tripinfo_flow.26" vType="DEFAULT_VEHTYPE" vaporized=""/>
    <tripinfo id="flow.27" depart="37.00" departLane="" departPos="0.00" departSpeed="12.50" departDelay="10.00" arrival="389.00" arrivalLane="" arrivalPos="500.00" arrivalSpeed="13.89" duration="352.00" routeLength="1500.00" waitSteps="0" timeLoss="243.20" rerouteNo="0" devices="tripinfo_flow.27" vType="DEFAULT_VEHTYPE" vaporized=""/>
    <tripinfo id="flow.28" depart="38.00" departLane="" departPos="0.00" departSpeed="11.91" departDelay="10.00" arrival="390.00" arrivalLane="" arrivalPos="500.00" arrivalSpeed="13.89" duration="352.00" routeLength="1500.00" waitSteps="0" timeLoss="243.60" rerouteNo="0" devices="tripinfo_flow.28" vType="DEFAULT_VEHTYPE" vaporized=""/>
    <tripinfo id="flow.29" depart="40.00" departLane="" departPos="0.00" departSpeed="12.82" departDelay="11.00" arrival="391.00" arrivalLane="" arrivalPos="500.00" arrivalSpeed="13.89" duration="351.00" routeLength="1500.00" waitSteps="0" timeLoss="243.00" rerouteNo="0" devices="tripinfo_flow.29" vType="DEFAULT_VEHTYPE" vaporized=""/>
    <tripinfo id="flow.30" depart="41.00" departLane="" departPos="0.00" departSpeed="12.20" departDelay="11.00" arrival="393.00" arrivalLane="" arrivalPos="500.00" arrivalSpeed="13.89" duration="352.00" routeLength="1500.00" waitSteps="0" timeLoss="243.40" rerouteNo="0" devices="tripinfo_flow.30" vType="DEFAULT_VEHTYPE" vaporized=""/>
    <tripinfo id="flow.31" depart="43.00" departLane="" departPos="0.00" departSpeed="13.16" departDelay="12.00" arrival="394.00" arrivalLane="" arrivalPos="500.00" arrivalSpeed="13.89" duration="351.00" routeLength="1500.00" waitSteps="0" timeLoss="242.80" rerouteNo="0" devices="tripinfo_flow.31" vType="DEFAULT_VEHTYPE" vaporized=""/>
    <tripinfo id="flow.32" depart="44.00" departLane="" departPos="0.00" departSpeed="12.50" departDelay="12.00" arrival="396.00" arrivalLane="" arrivalPos="500.00" arrivalSpeed="13.89" duration="352.00" routeLength="1500.00" waitSteps="0" timeLoss="243.20" rerouteNo="0" devices="tripinfo_flow.32" vType="DEFAULT_VEHTYPE" vaporized=""/>
    <tripinfo id="flow.33" depart="45.00" departLane="" departPos="0.00" departSpeed="11.91" departDelay="12.00" arrival="397.00" arrivalLane="" arrivalPos="500.00" arrivalSpeed="13.89" duration="352.00" routeLength="1500.00" waitSteps="0" timeLoss="243.60" rerouteNo="0" devices="tripinfo_flow.33" vType="DEFAULT_VEHTYPE" vaporized=""/>
    <tripinfo id="flow.34" depart="47.00" departLane="" departPos="0.00" departSpeed="12.82" departDelay="13.00" arrival="398.00" arrivalLane="" arrivalPos="500.00" arrivalSpeed="13.89" duration="351.00" routeLength="1500.00" waitSteps="0" timeLoss="243.00" rerouteNo="0" devices="tripinfo_flow.34" vType="DEFAULT_VEHTYPE" vaporized=""/>
    <tripinfo id="flow.35" depart="48.00" departLane="" departPos="0.00" departSpeed="12.20" departDelay="13.00" arrival="400.00" arrivalLane="" arrivalPos="500.00" arrivalSpeed="13.89" duration="352.00" routeLength="1500.00" waitSteps="0" timeLoss="243.46" rerouteNo="0" devices="tripinfo_flow.35" vType="DEFAULT_VEHTYPE" vaporized=""/>
    <tripinfo id="flow.36" depart="50.00" departLane="" departPos="0.00" departSpeed="13.16" departDelay="14.00" arrival="402.00" arrivalLane="" arrivalPos="500.00" arrivalSpeed="13.89" duration="352.00" routeLength="1500.00" waitSteps="0" timeLoss="243.46" rerouteNo="0" devices="tripinfo_flow.36" vType="DEFAULT_VEHTYPE" vaporized=""/>
    <tripinfo id="flow.37" depart="51.00" departLane="" departPos="0.00" departSpeed="12.50" departDelay="14.00" arrival="404.00" arrivalLane="" arrivalPos="500.00" arrivalSpeed="13.89" duration="353.00" routeLength="1500.00" waitSteps="0" timeLoss="244.46" rerouteNo="0" devices="tripinfo_flow.37" vType="DEFAULT_VEHTYPE" vaporized=""/>
    <tripinfo id="flow.38" depart="52.00" departLane="" departPos="0.00" departSpeed="11.91" departDelay="14.00" arrival="406.00" arrivalLane="" arrivalPos="500.00" arrivalSpeed="13.89" duration="354.00" routeLength="1500.00" waitSteps="0" timeLoss="245.46" rerouteNo="0" devices="tripinfo_flow.38" vType="DEFAULT_VEHTYPE" vaporized=""/>
    <tripinfo id="flow.39" depart="54.00" departLane="" departPos="0.00" departSpeed="12.82" departDelay="15.00" arrival="408.00" arrivalLane="" arrivalPos="500.00" arrivalSpeed="13.89" duration="354.00" routeLength="1500.00" waitSteps="195" timeLoss="245.46" rerouteNo="0" devices="tripinfo_flow.39" vType="DEFAULT_VEHTYPE" vaporized=""/>
    <tripinfo id="flow.40" depart="55.00" departLane="" departPos="0.00" departSpeed="12.20" departDelay="15.00" arrival="410.00" arrivalLane="" arrivalPos="500.00" arrivalSpeed="13.89" duration="355.00" routeLength="1500.00" waitSteps="0" timeLoss="246.46" rerouteNo="0" devices="tripinfo_flow.40" vType="DEFAULT_VEHTYPE" vaporized=""/>
    <tripinfo id="flow.41" depart="57.00" departLane="" departPos="0.00" departSpeed="13.16" departDelay="16.00" arrival="412.00" arrivalLane="" arrivalPos="500.00" arrivalSpeed="13.89" duration="355.00" routeLength="1500.00" waitSteps="0" timeLoss="246.46" rerouteNo="0" devices="tripinfo_flow.41" vType="DEFAULT_VEHTYPE" vaporized=""/>
    <tripinfo id="flow.42" depart="58.00" departLane="" departPos="0.00" departSpeed="12.50" departDelay="16.00" arrival="414.00" arrivalLane="" arrivalPos="500.00" arrivalSpeed="13.89" duration="356.00" routeLength="1500.00" waitSteps="0" timeLoss="247.46" rerouteNo="0" devices="tripinfo_flow.42" vType="DEFAULT_VEHTYPE" vaporized=""/>
    <tripinfo id="flow.43" depart="59.00" departLane="" departPos="0.00" departSpeed="11.91" departDelay="16.00" arrival="416.00" arrivalLane="" arrivalPos="500.00" arrivalSpeed="13.89" duration="357.00" routeLength="1500.00" waitSteps="0" timeLoss="248.46" rerouteNo="0" devices="tripinfo_flow.43" vType="DEFAULT_VEHTYPE" vaporized=""/>
    <tripinfo id="flow.44" depart="61.00" departLane="" departPos="0.00" departSpeed="12.82" departDelay="17.00" arrival="418.00" arrivalLane="" arrivalPos="500.00" arrivalSpeed="13.89" duration="357.00" routeLength="1500.00" waitSteps="0" timeLoss="248.46" rerouteNo="0" devices="tripinfo_flow.44" vType="DEFAULT_VEHTYPE" vaporized=""/>
    <tripinfo id="flow.45" depart="62.00" departLane="" departPos="0.00" departSpeed="12.20" departDelay="17.00" arrival="420.00" arrivalLane="" arrivalPos="500.00" arrivalSpeed="13.89" duration="358.00" routeLength="1500.00" waitSteps="0" timeLoss="249.46" rerouteNo="0" devices="tripinfo_flow.45" vType="DEFAULT_VEHTYPE" vaporized=""/>
    <tripinfo id="flow.46" depart="64.00" departLane="" departPos="0.00" departSpeed="13.16" departDelay="18.00" arrival="421.00" arrivalLane="" arrivalPos="500.00" arrivalSpeed="13.89" duration="357.00" routeLength="1500.00" waitSteps="0" timeLoss="248.86" rerouteNo="0" devices="tripinfo_flow.46" vType="DEFAULT_VEHTYPE" vaporized=""/>
    <tripinfo id="flow.47" depart="65.00" departLane="" departPos="0.00" departSpeed="12.50" departDelay="18.00" arrival="423.00" arrivalLane="" arrivalPos="500.00" arrivalSpeed="13.89" duration="358.00" routeLength="1500.00" waitSteps="0" timeLoss="249.26" rerouteNo="0" devices="tripinfo_flow.47" vType="DEFAULT_VEHTYPE" vaporized=""/>
    <tripinfo id="flow.48" depart="66.00" departLane="" departPos="0.00" departSpeed="11.91" departDelay="18.00" arrival="424.00" arrivalLane="" arrivalPos="500.00" arrivalSpeed="13.89" duration="358.00" routeLength="1500.00" waitSteps="0" timeLoss="249.66" rerouteNo="0" devices="tripinfo_flow.48" vType="DEFAULT_VEHTYPE" vaporized=""/>
    <tripinfo id="flow.49" depart="68.00" departLane="" departPos="0.00" departSpeed="12.82" departDelay="19.00" arrival="426.00" arrivalLane="" arrivalPos="500.00" arrivalSpeed="13.89" duration="358.00" routeLength="1500.00" waitSteps="0" timeLoss="249.06" rerouteNo="0" devices="tripinfo_flow.49" vType="DEFAULT_VEHTYPE" vaporized=""/>
    <tripinfo id="flow.50" depart="69.00" departLane="" departPos="0.00" departSpeed="12.20" departDelay="19.00" arrival="427.00" arrivalLane="" arrivalPos="500.00" arrivalSpeed="13.89" duration="358.00" routeLength="1500.00" waitSteps="0" timeLoss="249.46" rerouteNo="0" devices="tripinfo_flow.50" vType="DEFAULT_VEHTYPE" vaporized=""/>
    <tripinfo id="flow.51" depart="71.00" departLane="" departPos="0.00" departSpeed="13.16" departDelay="20.00" arrival="428.00" arrivalLane="" arrivalPos="500.00" arrivalSpeed="13.89" duration="357.00" routeLength="1500.00" waitSteps="0" timeLoss="248.86" rerouteNo="0" devices="tripinfo_flow.51" vType="DEFAULT_VEHTYPE" vaporized=""/>
    <tripinfo id="flow.52" depart="72.00" departLane="" departPos="0.00" departSpeed="12.50" departDelay="20.00" arrival="430.00" arrivalLane="" arrivalPos="500.00" arrivalSpeed="13.89" duration="358.00" routeLength="1500.00" waitSteps="184" timeLoss="249.26" rerouteNo="0" devices="tripinfo_flow.52" vType="DEFAULT_VEHTYPE" vaporized=""/>
    <tripinfo id="flow.53" depart="73.00" departLane="" departPos="0.00" departSpeed="11.91" departDelay="20.00" arrival="431.00" arrivalLane="" arrivalPos="500.00" arrivalSpeed="13.89" duration="358.00" routeLength="1500.00" waitSteps="0" timeLoss="249.66" rerouteNo="0" devices="tripinfo_flow.53" vType="DEFAULT_VEHTYPE" vaporized=""/>
    <tripinfo id="flow.54" depart="75.00" departLane="" departPos="0.00" departSpeed="12.82" departDelay="21.00" arrival="433.00" arrivalLane="" arrivalPos="500.00" arrivalSpeed="13.89" duration="358.00" routeLength="1500.00" waitSteps="0" timeLoss="249.06" rerouteNo="0" devices="tripinfo_flow.54" vType="DEFAULT_VEHTYPE" vaporized=""/>
    <tripinfo id="flow.55" depart="76.00" departLane="" departPos="0.00" departSpeed="12.20" departDelay="21.00" arrival="434.00" arrivalLane="" arrivalPos="500.00" arrivalSpeed="13.89" duration="358.00" routeLength="1500.00" waitSteps="0" timeLoss="249.46" rerouteNo="0" devices="tripinfo_flow.55" vType="DEFAULT_VEHTYPE" vaporized=""/>
    <tripinfo id="flow.56" depart="78.00" departLane="" departPos="0.00" departSpeed="13.16" departDelay="22.00" arrival="435.00" arrivalLane="" arrivalPos="500.00" arrivalSpeed="13.89" duration="357.00" routeLength="1500.00" waitSteps="0" timeLoss="248.93" rerouteNo="0" devices="tripinfo_flow.56" vType="DEFAULT_VEHTYPE" vaporized=""/>
    <tripinfo id="flow.57" depart="79.00" departLane="" departPos="0.00" departSpeed="12.50" departDelay="22.00" arrival="437.00" arrivalLane="" arrivalPos="500.00" arrivalSpeed="13.89" duration="358.00" routeLength="1500.00" waitSteps="0" timeLoss="249.93" rerouteNo="0" devices="tripinfo_flow.57" vType="DEFAULT_VEHTYPE" vaporized=""/>
    <tripinfo id="flow.58" depart="80.00" departLane="" departPos="0.00" departSpeed="11.91" departDelay="22.00" arrival="439.00" arrivalLane="" arrivalPos="500.00" arrivalSpeed="13.89" duration="359.00" routeLength="1500.00" waitSteps="0" timeLoss="250.93" rerouteNo="0" devices="tripinfo_flow.58" vType="DEFAULT_VEHTYPE" vaporized=""/>
    <tripinfo id="flow.59" depart="82.00" departLane="" departPos="0.00" departSpeed="12.82" departDelay="23.00" arrival="441.00" arrivalLane="" arrivalPos="500.00" arrivalSpeed="13.89" duration="359.00" routeLength="1500.00" waitSteps="0" timeLoss="250.93" rerouteNo="0" devices="tripinfo_flow.59" vType="DEFAULT_VEHTYPE" vaporized=""/>
    <tripinfo id="flow.60" depart="83.00" departLane="" departPos="0.00" departSpeed="12.20" departDelay="23.00" arrival="443.00" arrivalLane="" arrivalPos="500.00" arrivalSpeed="13.89" duration="360.00" routeLength="1500.00" waitSteps="0" timeLoss="251.93" rerouteNo="0" devices="tripinfo_flow.60" vType="DEFAULT_VEHTYPE" vaporized=""/>
    <tripinfo id="flow.61" depart="85.00" departLane="" departPos="0.00" departSpeed="13.16" departDelay="24.00" arrival="445.00" arrivalLane="" arrivalPos="500.00" arrivalSpeed="13.89" duration="360.00" routeLength="1500.00" waitSteps="0" timeLoss="251.93" rerouteNo="0" devices="tripinfo_flow.61" vType="DEFAULT_VEHTYPE" vaporized=""/>
    <tripinfo id="flow.62" depart="86.00" departLane="" departPos="0.00" departSpeed="12.50" departDelay="24.00" arrival="447.00" arrivalLane="" arrivalPos="500.00" arrivalSpeed="13.89" duration="361.00" routeLength="1500.00" waitSteps="0" timeLoss="252.93" rerouteNo="0" devices="tripinfo_flow.62" vType="DEFAULT_VEHTYPE" vaporized=""/>
    <tripinfo id="flow.63" depart="87.00" departLane="" departPos="0.00" departSpeed="11.91" departDelay="24.00" arrival="449.00" arrivalLane="" arrivalPos="500.00" arrivalSpeed="13.89" duration="362.00" routeLength="1500.00" waitSteps="0" timeLoss="253.93" rerouteNo="0" devices="tripinfo_flow.63" vType="DEFAULT_VEHTYPE" vaporized=""/>
    <tripinfo id="flow.64" depart="89.00" departLane="" departPos="0.00" departSpeed="12.82" departDelay="25.00" arrival="451.00" arrivalLane="" arrivalPos="500.00" arrivalSpeed="13.89" duration="362.00" routeLength="1500.00" waitSteps="0" timeLoss="253.93" rerouteNo="0" devices="tripinfo_flow.64" vType="DEFAULT_VEHTYPE" vaporized=""/>
    <tripinfo id="flow.65" depart="90.00" departLane="" departPos="0.00" departSpeed="12.20" departDelay="25.00" arrival="453.00" arrivalLane="" arrivalPos="500.00" arrivalSpeed="13.89" duration="363.00" routeLength="1500.00" waitSteps="173" timeLoss="254.93" rerouteNo="0" devices="tripinfo_flow.65" vType="DEFAULT_VEHTYPE" vaporized=""/>
    <tripinfo id="flow.66" depart="92.00" departLane="" departPos="0.00" departSpeed="13.16" departDelay="26.00" arrival="455.00" arrivalLane="" arrivalPos="500.00" arrivalSpeed="13.89" duration="363.00" routeLength="1500.00" waitSteps="0" timeLoss="254.93" rerouteNo="0" devices="tripinfo_flow.66" vType="DEFAULT_VEHTYPE" vaporized=""/>
    <tripinfo id="flow.67" depart="93.00" departLane="" departPos="0.00" departSpeed="12.50" departDelay="26.00" arrival="457.00" arrivalLane="" arrivalPos="500.00" arrivalSpeed="13.89" duration="364.00" routeLength="1500.00" waitSteps="0" timeLoss="255.33" rerouteNo="0" devices="tripinfo_flow.67" vType="DEFAULT_VEHTYPE" vaporized=""/>
    <tripinfo id="flow.68" depart="94.00" departLane="" departPos="0.00" departSpeed="11.91" departDelay="26.00" arrival="458.00" arrivalLane="" arrivalPos="500.00" arrivalSpeed="13.89" duration="364.00" routeLength="1500.00" waitSteps="0" timeLoss="255.73" rerouteNo="0" devices="tripinfo_flow.68" vType="DEFAULT_VEHTYPE" vaporized=""/>
    <tripinfo id="flow.69" depart="96.00" departLane="" departPos="0.00" departSpeed="12.82" departDelay="27.00" arrival="460.00" arrivalLane="" arrivalPos="500.00" arrivalSpeed="13.89" duration="364.00" routeLength="1500.00" waitSteps="0" timeLoss="255.13" rerouteNo="0" devices="tripinfo_flow.69" vType="DEFAULT_VEHTYPE" vaporized=""/>
    <tripinfo id="flow.70" depart="97.00" departLane="" departPos="0.00" departSpeed="12.20" departDelay="27.00" arrival="461.00" arrivalLane="" arrivalPos="500.00" arrivalSpeed="13.89" duration="364.00" routeLength="1500.00" waitSteps="0" timeLoss="255.53" rerouteNo="0" devices="tripinfo_flow.70" vType="DEFAULT_VEHTYPE" vaporized=""/>
    <tripinfo id="flow.71" depart="99.00" departLane="" departPos="0.00" departSpeed="13.16" departDelay="28.00" arrival="462.00" arrivalLane="" arrivalPos="500.00" arrivalSpeed="13.89" duration="363.00" routeLength="1500.00" waitSteps="0" timeLoss="254.93" rerouteNo="0" devices="tripinfo_flow.71" vType="DEFAULT_VEHTYPE" vaporized=""/>
    <tripinfo id="flow.72" depart="100.00" departLane="" departPos="0.00" departSpeed="12.50" departDelay="28.00" arrival="464.00" arrivalLane="" arrivalPos="500.00" arrivalSpeed="13.89" duration="364.00" routeLength="1500.00" waitSteps="0" timeLoss="255.33" rerouteNo="0" devices="tripinfo_flow.72" vType="DEFAULT_VEHTYPE" vaporized=""/>
    <tripinfo id="flow.73" depart="101.00" departLane="" departPos="0.00" departSpeed="11.91" departDelay="28.00" arrival="465.00" arrivalLane="" arrivalPos="500.00" arrivalSpeed="13.89" duration="364.00" routeLength="1500.00" waitSteps="0" timeLoss="255.73" rerouteNo="0" devices="tripinfo_flow.73" vType="DEFAULT_VEHTYPE" vaporized=""/>
    <tripinfo id="flow.74" depart="103.00" departLane="" departPos="0.00" departSpeed="12.82" departDelay="29.00" arrival="467.00" arrivalLane="" arrivalPos="500.00" arrivalSpeed="13.89" duration="364.00" routeLength="1500.00" waitSteps="0" timeLoss="255.13" rerouteNo="0" devices="tripinfo_flow.74" vType="DEFAULT_VEHTYPE" vaporized=""/>
    <tripinfo id="flow.75" depart="104.00" departLane="" departPos="0.00" departSpeed="12.20" departDelay="29.00" arrival="468.00" arrivalLane="" arrivalPos="500.00" arrivalSpeed="13.89" duration="364.00" routeLength="1500.00" waitSteps="0" timeLoss="255.53" rerouteNo="0" devices="tripinfo_flow.75" vType="DEFAULT_VEHTYPE" vaporized=""/>
    <tripinfo id="flow.76" depart="106.00" departLane="" departPos="0.00" departSpeed="13.16" departDelay="30.00" arrival="469.00" arrivalLane="" arrivalPos="500.00" arrivalSpeed="13.89" duration="363.00" routeLength="1500.00" waitSteps="0" timeLoss="254.93" rerouteNo="0" devices="tripinfo_flow.76" vType="DEFAULT_VEHTYPE" vaporized=""/>
    <tripinfo id="flow.77" depart="107.00" departLane="" departPos="0.00" departSpeed="12.50" departDelay="30.00" arrival="471.00" arrivalLane="" arrivalPos="500.00" arrivalSpeed="13.89" duration="364.00" routeLength="1500.00" waitSteps="0" timeLoss="255.40" rerouteNo="0" devices="tripinfo_flow.77" vType="DEFAULT_VEHTYPE" vaporized=""/>
    <tripinfo id="flow.78" depart="108.00" departLane="" departPos="0.00" departSpeed="11.91" departDelay="30.00" arrival="473.00" arrivalLane="" arrivalPos="500.00" arrivalSpeed="13.89" duration="365.00" routeLength="1500.00" waitSteps="162" timeLoss="256.40" rerouteNo="0" devices="tripinfo_flow.78" vType="DEFAULT_VEHTYPE" vaporized=""/>
    <tripinfo id="flow.79" depart="110.00" departLane="" departPos="0.00" departSpeed="12.82" departDelay="31.00" arrival="475.00" arrivalLane="" arrivalPos="500.00" arrivalSpeed="13.89" duration="365.00" routeLength="1500.00" waitSteps="0" timeLoss="256.40" rerouteNo="0" devices="tripinfo_flow.79" vType="DEFAULT_VEHTYPE" vaporized=""/>
    <tripinfo id="flow.80" depart="111.00" departLane="" departPos="0.00" departSpeed="12.20" departDelay="31.00" arrival="477.00" arrivalLane="" arrivalPos="500.00" arrivalSpeed="13.89" duration="366.00" routeLength="1500.00" waitSteps="0" timeLoss="257.40" rerouteNo="0" devices="tripinfo_flow.80" vType="DEFAULT_VEHTYPE" vaporized=""/>
    <tripinfo id="flow.81" depart="113.00" departLane="" departPos="0.00" departSpeed="13.16" departDelay="32.00" arrival="479.00" arrivalLane="" arrivalPos="500.00" arrivalSpeed="13.89" duration="366.00" routeLength="1500.00" waitSteps="0" timeLoss="257.40" rerouteNo="0" devices="tripinfo_flow.81" vType="DEFAULT_VEHTYPE" vaporized=""/>
    <tripinfo id="flow.82" depart="114.00" departLane="" departPos="0.00" departSpeed="12.50" departDelay="32.00" arrival="481.00" arrivalLane="" arrivalPos="500.00" arrivalSpeed="13.89" duration="367.00" routeLength="1500.00" waitSteps="0" timeLoss="258.40" rerouteNo="0" devices="tripinfo_flow.82" vType="DEFAULT_VEHTYPE" vaporized=""/>
    <tripinfo id="flow.83" depart="115.00" departLane="" departPos="0.00" departSpeed="11.91" departDelay="32.00" arrival="483.00" arrivalLane="" arrivalPos="500.00" arrivalSpeed="13.89" duration="368.00" routeLength="1500.00" waitSteps="0" timeLoss="259.40" rerouteNo="0" devices="tripinfo_flow.83" vType="DEFAULT_VEHTYPE" vaporized=""/>
    <tripinfo id="flow.84" depart="117.00" departLane="" departPos="0.00" departSpeed="12.82" departDelay="33.00" arrival="485.00" arrivalLane="" arrivalPos="500.00" arrivalSpeed="13.89" duration="368.00" routeLength="1500.00" waitSteps="0" timeLoss="259.40" rerouteNo="0" devices="tripinfo_flow.84" vType="DEFAULT_VEHTYPE" vaporized=""/>
    <tripinfo id="flow.85" depart="118.00" departLane="" departPos="0.00" departSpeed="12.20" departDelay="33.00" arrival="487.00" arrivalLane="" arrivalPos="500.00" arrivalSpeed="13.89" duration="369.00" routeLength="1500.00" waitSteps="0" timeLoss="260.40" rerouteNo="0" devices="tripinfo_flow.85" vType="DEFAULT_VEHTYPE" vaporized=""/>