<?xml version="1.0"?>

<!-- generated on 03/04/10 09:19:29 by SUMO sumo Version dev-SVN-r8368
<configuration>

    <input>
        <net-file value="three_split.net.xml"/>
        <additional-files value="input_routes.rou.xml,input_additional2.add.xml"/>
    </input>

    <output>
        <tripinfo-output value="tripinfos.xml"/>
    </output>

    <time>
        <begin value="0"/>
    </time>

    <report>
        <no-duration-log value="true"/>
        <no-step-log value="true"/>
    </report>

</configuration>
-->

<tripinfos>
    <tripinfo id="0.0" depart="0" departLane="beg_0" departPos="0.00" departSpeed="0.00" departDelay="0" arrival="77" arrivalLane="rend_0" arrivalPos="2.99" arrivalSpeed="27.80" duration="77" routeLength="1983.99" waitSteps="0" rerouteNo="0" devices="" vtype="DEFAULT_VEHTYPE" vaporized=""></tripinfo>
    <tripinfo id="0.1" depart="20" departLane="beg_0" departPos="0.00" departSpeed="0.00" departDelay="0" arrival="97" arrivalLane="rend_0" arrivalPos="2.99" arrivalSpeed="27.80" duration="77" routeLength="1983.99" waitSteps="0" rerouteNo="0" devices="" vtype="DEFAULT_VEHTYPE" vaporized=""></tripinfo>
    <tripinfo id="0.2" depart="40" departLane="beg_0" departPos="0.00" departSpeed="0.00" departDelay="0" arrival="117" arrivalLane="rend_0" arrivalPos="2.99" arrivalSpeed="27.80" duration="77" routeLength="1983.99" waitSteps="0" rerouteNo="0" devices="" vtype="DEFAULT_VEHTYPE" vaporized=""></tripinfo>
    <tripinfo id="0.5" depart="100" departLane="beg_0" departPos="0.00" departSpeed="0.00" departDelay="0" arrival="177" arrivalLane="rend_0" arrivalPos="2.99" arrivalSpeed="27.80" duration="77" routeLength="1983.99" waitSteps="0" rerouteNo="0" devices="" vtype="DEFAULT_VEHTYPE" vaporized=""></tripinfo>
    <tripinfo id="0.6" depart="120" departLane="beg_0" departPos="0.00" departSpeed="0.00" departDelay="0" arrival="197" arrivalLane="rend_0" arrivalPos="2.99" arrivalSpeed="27.80" duration="77" routeLength="1983.99" waitSteps="0" rerouteNo="0" devices="" vtype="DEFAULT_VEHTYPE" vaporized=""></tripinfo>
    <tripinfo id="0.7" depart="140" departLane="beg_0" departPos="0.00" departSpeed="0.00" departDelay="0" arrival="217" arrivalLane="rend_0" arrivalPos="2.99" arrivalSpeed="27.80" duration="77" routeLength="1983.99" waitSteps="0" rerouteNo="0" devices="" vtype="DEFAULT_VEHTYPE" vaporized=""></tripinfo>
    <tripinfo id="0.8" depart="160" departLane="beg_0" departPos="0.00" departSpeed="0.00" departDelay="0" arrival="237" arrivalLane="rend_0" arrivalPos="2.99" arrivalSpeed="27.80" duration="77" routeLength="1983.99" waitSteps="0" rerouteNo="0" devices="" vtype="DEFAULT_VEHTYPE" vaporized=""></tripinfo>
    <tripinfo id="0.9" depart="180" departLane="beg_0" departPos="0.00" departSpeed="0.00" departDelay="0" arrival="257" arrivalLane="rend_0" arrivalPos="2.99" arrivalSpeed="27.80" duration="77" routeLength="1983.99" waitSteps="0" rerouteNo="0" devices="" vtype="DEFAULT_VEHTYPE" vaporized=""></tripinfo>
    <tripinfo id="0.10" depart="200" departLane="beg_0" departPos="0.00" departSpeed="0.00" departDelay="0" arrival="277" arrivalLane="rend_0" arrivalPos="2.99" arrivalSpeed="27.80" duration="77" routeLength="1983.99" waitSteps="0" rerouteNo="0" devices="" vtype="DEFAULT_VEHTYPE" vaporized=""></tripinfo>
</tripinfos>
