<?xml version="1.0"?>

<!-- generated on 03/25/10 08:21:29 by SUMO sumo Version dev-SVN-r8511
<configuration>

    <input>
        <net-file value="three_split.net.xml"/>
        <additional-files value="input_routes.rou.xml,input_additional2.add.xml"/>
    </input>

    <output>
        <tripinfo-output value="tripinfos.xml"/>
    </output>

    <time>
        <begin value="0"/>
    </time>

    <report>
        <no-duration-log value="true"/>
        <no-step-log value="true"/>
    </report>

    <mesoscopic>
        <mesosim value="true"/>
    </mesoscopic>

</configuration>
-->

<tripinfos>
    <tripinfo id="0.0" depart="0.00" departLane="" departPos="0.00" departSpeed="0.00" departDelay="0.00" arrival="72.00" arrivalLane="" arrivalPos="" arrivalSpeed="" duration="72.00" routeLength="2481.00" waitSteps="0" rerouteNo="0" devices="" vtype="DEFAULT_VEHTYPE" vaporized=""/>
    <tripinfo id="0.1" depart="20.00" departLane="" departPos="0.00" departSpeed="0.00" departDelay="0.00" arrival="92.00" arrivalLane="" arrivalPos="" arrivalSpeed="" duration="72.00" routeLength="2481.00" waitSteps="0" rerouteNo="0" devices="" vtype="DEFAULT_VEHTYPE" vaporized=""/>
    <tripinfo id="0.2" depart="40.00" departLane="" departPos="0.00" departSpeed="0.00" departDelay="0.00" arrival="112.00" arrivalLane="" arrivalPos="" arrivalSpeed="" duration="72.00" routeLength="2481.00" waitSteps="0" rerouteNo="0" devices="" vtype="DEFAULT_VEHTYPE" vaporized=""/>
    <tripinfo id="0.5" depart="100.00" departLane="" departPos="0.00" departSpeed="0.00" departDelay="0.00" arrival="172.00" arrivalLane="" arrivalPos="" arrivalSpeed="" duration="72.00" routeLength="2481.00" waitSteps="0" rerouteNo="0" devices="" vtype="DEFAULT_VEHTYPE" vaporized=""/>
    <tripinfo id="0.6" depart="120.00" departLane="" departPos="0.00" departSpeed="0.00" departDelay="0.00" arrival="192.00" arrivalLane="" arrivalPos="" arrivalSpeed="" duration="72.00" routeLength="2481.00" waitSteps="0" rerouteNo="0" devices="" vtype="DEFAULT_VEHTYPE" vaporized=""/>
    <tripinfo id="0.7" depart="140.00" departLane="" departPos="0.00" departSpeed="0.00" departDelay="0.00" arrival="212.00" arrivalLane="" arrivalPos="" arrivalSpeed="" duration="72.00" routeLength="2481.00" waitSteps="0" rerouteNo="0" devices="" vtype="DEFAULT_VEHTYPE" vaporized=""/>
    <tripinfo id="0.8" depart="160.00" departLane="" departPos="0.00" departSpeed="0.00" departDelay="0.00" arrival="232.00" arrivalLane="" arrivalPos="" arrivalSpeed="" duration="72.00" routeLength="2481.00" waitSteps="0" rerouteNo="0" devices="" vtype="DEFAULT_VEHTYPE" vaporized=""/>
    <tripinfo id="0.9" depart="180.00" departLane="" departPos="0.00" departSpeed="0.00" departDelay="0.00" arrival="252.00" arrivalLane="" arrivalPos="" arrivalSpeed="" duration="72.00" routeLength="2481.00" waitSteps="0" rerouteNo="0" devices="" vtype="DEFAULT_VEHTYPE" vaporized=""/>
    <tripinfo id="0.10" depart="200.00" departLane="" departPos="0.00" departSpeed="0.00" departDelay="0.00" arrival="272.00" arrivalLane="" arrivalPos="" arrivalSpeed="" duration="72.00" routeLength="2481.00" waitSteps="0" rerouteNo="0" devices="" vtype="DEFAULT_VEHTYPE" vaporized=""/>
</tripinfos>
