<?xml version="1.0" encoding="UTF-8"?>

<!-- generated on Thu Sep  3 17:20:06 2020 by Eclipse SUMO sumo Version v1_6_0+1961-95c187100c
This data file and the accompanying materials
are made available under the terms of the Eclipse Public License v2.0
which accompanies this distribution, and is available at
http://www.eclipse.org/legal/epl-v20.html
SPDX-License-Identifier: EPL-2.0
<configuration xmlns:xsi="http://www.w3.org/2001/XMLSchema-instance" xsi:noNamespaceSchemaLocation="http://sumo.dlr.de/xsd/sumoConfiguration.xsd">

    <input>
        <net-file value="net.net.xml"/>
        <route-files value="input_routes.rou.xml"/>
    </input>

    <output>
        <write-license value="true"/>
        <vehroute-output value="vehroutes.xml"/>
        <railsignal-block-output value="railsignal_blocks.xml"/>
    </output>

    <processing>
        <default.speeddev value="0"/>
        <pedestrian.model value="nonInteracting"/>
    </processing>

    <report>
        <xml-validation value="never"/>
        <xml-validation.routes value="never"/>
        <duration-log.disable value="true"/>
        <no-step-log value="true"/>
    </report>

    <mesoscopic>
        <mesosim value="true"/>
    </mesoscopic>

</configuration>
-->

<railsignal-block-output>
    <railSignal id="gneJ1">
        <link linkIndex="0" from="-gneE1_0" to="-gneE0_0">
            <driveWay edges="-gneE0">
                <forward lanes="-gneE0_0"/>
                <bidi lanes="gneE0_0"/>
                <flank lanes=""/>
                <protectingSwitches links=""/>
                <conflictLinks signals=""/>
            </driveWay>
        </link>
        <link linkIndex="1" from="gneE0_0" to="gneE1_0">
            <driveWay edges="gneE1 gneE2">
                <forward lanes="gneE1_0 gneE2_0"/>
                <bidi lanes="-gneE1_0 -gneE2_0"/>
                <flank lanes="-gneE3_0"/>
                <protectingSwitches links=""/>
                <conflictLinks signals=""/>
            </driveWay>
        </link>
    </railSignal>
</railsignal-block-output>
