<?xml version="1.0" encoding="UTF-8"?>

<!-- generated on Thu Mar 12 08:40:57 2020 by Eclipse SUMO Version v1_5_0+0668-3019609
This data file and the accompanying materials
are made available under the terms of the Eclipse Public License v2.0
which accompanies this distribution, and is available at
http://www.eclipse.org/legal/epl-v20.html
SPDX-License-Identifier: EPL-2.0
<configuration xmlns:xsi="http://www.w3.org/2001/XMLSchema-instance" xsi:noNamespaceSchemaLocation="http://sumo.dlr.de/xsd/sumoConfiguration.xsd">

    <input>
        <net-file value="net.net.xml"/>
        <route-files value="input_routes.rou.xml"/>
        <additional-files value="input_additional.add.xml"/>
    </input>

    <output>
        <write-license value="true"/>
        <emission-output value="rawdump.xml"/>
        <tripinfo-output value="tripinfos.xml"/>
    </output>

    <time>
        <begin value="0"/>
        <end value="150"/>
    </time>

    <processing>
        <default.speeddev value="0"/>
    </processing>

    <report>
        <xml-validation value="never"/>
        <duration-log.disable value="true"/>
        <no-step-log value="true"/>
    </report>

    <emissions>
        <device.emissions.probability value="1"/>
    </emissions>

</configuration>
-->

<meandata xmlns:xsi="http://www.w3.org/2001/XMLSchema-instance" xsi:noNamespaceSchemaLocation="http://sumo.dlr.de/xsd/meandata_file.xsd">
    <interval begin="0.00" end="150.00" id="ld1">
        <edge id="E0">
            <lane id="E0_0" sampledSeconds="151.75" CO_abs="41.813037" CO2_abs="297570.585344" HC_abs="15.310453" PMx_abs="29.049467" NOx_abs="1227.832315" fuel_abs="112.642510" electricity_abs="0"
            CO_normed="5.017564" CO2_normed="35708.470241" HC_normed="1.837254" PMx_normed="3.485936" NOx_normed="147.339878" fuel_normed="13.517101" electricity_normed="0"
            traveltime="76.24" CO_perVeh="21.007120" CO2_perVeh="149501.242314" HC_perVeh="7.692063" PMx_perVeh="14.594626" NOx_perVeh="616.870301" fuel_perVeh="56.592271" electricity_perVeh="0"/>
        </edge>
    </interval>
</meandata>
