<?xml version="1.0" encoding="UTF-8"?>

<!-- generated on Wed Mar 11 22:22:41 2020 by Eclipse SUMO Version v1_5_0+0662-a598ecae47
This data file and the accompanying materials
are made available under the terms of the Eclipse Public License v2.0
which accompanies this distribution, and is available at
http://www.eclipse.org/legal/epl-v20.html
SPDX-License-Identifier: EPL-2.0
<configuration xmlns:xsi="http://www.w3.org/2001/XMLSchema-instance" xsi:noNamespaceSchemaLocation="http://sumo.dlr.de/xsd/sumoConfiguration.xsd">

    <input>
        <net-file value="net.net.xml"/>
        <route-files value="input_routes.rou.xml"/>
        <additional-files value="input_additional.add.xml"/>
    </input>

    <output>
        <write-license value="true"/>
        <emission-output value="rawdump.xml"/>
        <tripinfo-output value="tripinfos.xml"/>
    </output>

    <time>
        <begin value="0"/>
        <end value="150"/>
    </time>

    <processing>
        <default.speeddev value="0"/>
    </processing>

    <report>
        <xml-validation value="never"/>
        <duration-log.disable value="true"/>
        <no-step-log value="true"/>
    </report>

    <emissions>
        <device.emissions.probability value="1"/>
    </emissions>

</configuration>
-->

<tripinfos xmlns:xsi="http://www.w3.org/2001/XMLSchema-instance" xsi:noNamespaceSchemaLocation="http://sumo.dlr.de/xsd/tripinfo_file.xsd">
    <tripinfo id="ve1" depart="3.00" departLane="E0_0" departPos="5.10" departSpeed="0.00" departDelay="3.00" arrival="129.00" arrivalLane="E0_0" arrivalPos="200.00" arrivalSpeed="12.72" duration="126.00" routeLength="194.90" waitingTime="0.00" waitingCount="0" stopTime="100.00" timeLoss="11.38" rerouteNo="0" devices="tripinfo_ve1 emissions_ve1" vType="passenger" speedFactor="1.00" vaporized="">
        <emissions CO_abs="21.210468" CO2_abs="157283.486449" HC_abs="8.082757" PMx_abs="15.272331" NOx_abs="644.850080" fuel_abs="59.537624" electricity_abs="0"/>
    </tripinfo>
    <tripinfo id="ve0" depart="0.00" departLane="E0_0" departPos="5.10" departSpeed="0.00" departDelay="0.00" arrival="132.00" arrivalLane="E0_0" arrivalPos="200.00" arrivalSpeed="13.28" duration="132.00" routeLength="194.90" waitingTime="75.00" waitingCount="1" stopTime="107.00" timeLoss="10.74" rerouteNo="0" devices="tripinfo_ve0 emissions_ve0" vType="passenger" speedFactor="1.00" vaporized="">
        <emissions CO_abs="20.539156" CO2_abs="139727.100776" HC_abs="7.183064" PMx_abs="13.734822" NOx_abs="580.719926" fuel_abs="52.892894" electricity_abs="0"/>
    </tripinfo>
</tripinfos>
