<?xml version="1.0" encoding="UTF-8"?>

<!-- generated on Thu Nov 21 13:53:25 2019 by Eclipse SUMO Version v1_3_1+0960-7b06a594ed
This data file and the accompanying materials
are made available under the terms of the Eclipse Public License v2.0
which accompanies this distribution, and is available at
http://www.eclipse.org/legal/epl-v20.html
SPDX-License-Identifier: EPL-2.0
<configuration xmlns:xsi="http://www.w3.org/2001/XMLSchema-instance" xsi:noNamespaceSchemaLocation="http://sumo.dlr.de/xsd/sumoConfiguration.xsd">

    <input>
        <net-file value="three_split.net.xml"/>
        <route-files value="input_routes.rou.xml"/>
        <additional-files value="input_additional.add.xml"/>
    </input>

    <output>
        <write-license value="true"/>
        <vehroute-output value="vehroutes.xml"/>
    </output>

    <time>
        <begin value="0"/>
    </time>

    <processing>
        <ignore-route-errors value="true"/>
        <default.speeddev value="0"/>
    </processing>

    <report>
        <xml-validation value="never"/>
        <duration-log.disable value="true"/>
        <no-step-log value="true"/>
    </report>

</configuration>
-->

<routes xmlns:xsi="http://www.w3.org/2001/XMLSchema-instance" xsi:noNamespaceSchemaLocation="http://sumo.dlr.de/xsd/routes_file.xsd">
    <vehicle id="onRerouterEdgeAtClose" depart="0.00" arrival="50.00">
        <routeDistribution>
            <route replacedOnEdge="beg2left" reason="rerouter" replacedAtTime="50.00" probability="0" edges="beg beg2left left left2end end rend"/>
            <route edges="beg beg2left"/>
        </routeDistribution>
    </vehicle>

    <vehicle id="insertedWhileClosed.0" depart="60.00" arrival="84.00">
        <routeDistribution>
            <route replacedOnEdge="beg2left" reason="rerouter" replacedAtTime="84.00" probability="0" edges="beg beg2left left left2end end rend"/>
            <route edges="beg beg2left"/>
        </routeDistribution>
    </vehicle>

    <vehicle id="insertedWhileClosed.1" depart="62.00" arrival="86.00">
        <routeDistribution>
            <route replacedOnEdge="beg2left" reason="rerouter" replacedAtTime="86.00" probability="0" edges="beg beg2left left left2end end rend"/>
            <route edges="beg beg2left"/>
        </routeDistribution>
    </vehicle>

    <vehicle id="insertedWhileClosed.4" depart="68.00" arrival="92.00">
        <routeDistribution>
            <route replacedOnEdge="beg2left" reason="rerouter" replacedAtTime="92.00" probability="0" edges="beg beg2left left left2end end rend"/>
            <route edges="beg beg2left"/>
        </routeDistribution>
    </vehicle>

    <vehicle id="insertedWhileClosed.7" depart="74.00" arrival="98.00">
        <routeDistribution>
            <route replacedOnEdge="beg2left" reason="rerouter" replacedAtTime="98.00" probability="0" edges="beg beg2left left left2end end rend"/>
            <route edges="beg beg2left"/>
        </routeDistribution>
    </vehicle>

    <vehicle id="insertedWhileClosed.8" depart="76.00" arrival="100.00">
        <routeDistribution>
            <route replacedOnEdge="beg2left" reason="rerouter" replacedAtTime="100.00" probability="0" edges="beg beg2left left left2end end rend"/>
            <route edges="beg beg2left"/>
        </routeDistribution>
    </vehicle>

    <vehicle id="beforeRerouterEdgeAtClose" depart="40.00" arrival="553.00">
        <route edges="beg beg2left left left2end end rend"/>
    </vehicle>

    <vehicle id="insertedWhileClosed.2" depart="64.00" arrival="856.00">
        <route edges="beg beg2left left left2end end rend"/>
    </vehicle>

    <vehicle id="insertedWhileClosed.3" depart="66.00" arrival="1149.00">
        <route edges="beg beg2left left left2end end rend"/>
    </vehicle>

    <vehicle id="insertedWhileClosed.5" depart="70.00" arrival="1151.00">
        <route edges="beg beg2left left left2end end rend"/>
    </vehicle>

    <vehicle id="insertedWhileClosed.6" depart="72.00" arrival="1153.00">
        <route edges="beg beg2left left left2end end rend"/>
    </vehicle>

    <vehicle id="insertedWhileClosed.9" depart="78.00" arrival="1156.00">
        <route edges="beg beg2left left left2end end rend"/>
    </vehicle>

</routes>
