<?xml version="1.0" encoding="UTF-8"?>

<!-- generated on Wed Mar 11 22:22:23 2020 by Eclipse SUMO Version v1_5_0+0662-a598ecae47
This data file and the accompanying materials
are made available under the terms of the Eclipse Public License v2.0
which accompanies this distribution, and is available at
http://www.eclipse.org/legal/epl-v20.html
SPDX-License-Identifier: EPL-2.0
<configuration xmlns:xsi="http://www.w3.org/2001/XMLSchema-instance" xsi:noNamespaceSchemaLocation="http://sumo.dlr.de/xsd/sumoConfiguration.xsd">

    <input>
        <net-file value="net.net.xml"/>
        <additional-files value="input_routes.rou.xml,input_additional2.add.xml"/>
    </input>

    <output>
        <write-license value="true"/>
        <tripinfo-output value="tripinfos.xml"/>
    </output>

    <time>
        <begin value="0"/>
        <end value="1000"/>
    </time>

    <processing>
        <default.speeddev value="0"/>
    </processing>

    <report>
        <xml-validation value="never"/>
        <duration-log.disable value="true"/>
        <no-step-log value="true"/>
    </report>

</configuration>
-->

<tripinfos xmlns:xsi="http://www.w3.org/2001/XMLSchema-instance" xsi:noNamespaceSchemaLocation="http://sumo.dlr.de/xsd/tripinfo_file.xsd">
    <tripinfo id="0" depart="0.00" departLane="4/1to3/1_0" departPos="100.00" departSpeed="10.00" departDelay="0.00" arrival="652.00" arrivalLane="1/1to0/1_0" arrivalPos="400.00" arrivalSpeed="0.80" duration="652.00" routeLength="1500.00" waitingTime="0.00" waitingCount="0" stopTime="500.00" timeLoss="1.92" rerouteNo="0" devices="tripinfo_0" vType="DEFAULT_VEHTYPE" speedFactor="1.00" vaporized=""/>
    <tripinfo id="1" depart="5.00" departLane="4/1to3/1_0" departPos="100.00" departSpeed="10.00" departDelay="0.00" arrival="652.00" arrivalLane="1/1to0/1_0" arrivalPos="400.00" arrivalSpeed="0.00" duration="647.00" routeLength="1500.00" waitingTime="496.00" waitingCount="1" stopTime="0.00" timeLoss="497.50" rerouteNo="0" devices="tripinfo_1" vType="DEFAULT_VEHTYPE" speedFactor="1.00" vaporized="teleport"/>
</tripinfos>
