<?xml version="1.0" encoding="UTF-8"?>

<!-- generated on Wed Aug 12 14:31:30 2020 by Eclipse SUMO sumo Version v1_6_0+1517-5df4688dbc
<configuration xmlns:xsi="http://www.w3.org/2001/XMLSchema-instance" xsi:noNamespaceSchemaLocation="http://sumo.dlr.de/xsd/sumoConfiguration.xsd">

    <input>
        <net-file value="input_net3.net.xml"/>
        <route-files value="input_routes.rou.xml"/>
    </input>

    <output>
        <fcd-output value="fcd.xml"/>
    </output>

    <report>
        <no-step-log value="true"/>
    </report>

    <traci_server>
        <remote-port value="60481"/>
    </traci_server>

</configuration>
-->

<fcd-export xmlns:xsi="http://www.w3.org/2001/XMLSchema-instance" xsi:noNamespaceSchemaLocation="http://sumo.dlr.de/xsd/fcd_file.xsd">
    <timestep time="0.00">
        <person id="p0" x="113.85" y="76.40" angle="0.00" speed="0.00" pos="76.40" edge="SC" slope="0.00"/>
    </timestep>
    <timestep time="1.00">
        <person id="p0" x="113.85" y="77.40" angle="0.00" speed="1.21" pos="77.40" edge="SC" slope="0.00"/>
    </timestep>
    <timestep time="2.00">
        <person id="p0" x="113.85" y="78.40" angle="0.00" speed="1.26" pos="78.40" edge="SC" slope="0.00"/>
    </timestep>
    <timestep time="3.00">
        <person id="p0" x="113.85" y="79.40" angle="0.00" speed="1.46" pos="79.40" edge="SC" slope="0.00"/>
    </timestep>
    <timestep time="4.00">
        <person id="p0" x="113.85" y="80.40" angle="0.00" speed="1.33" pos="80.40" edge="SC" slope="0.00"/>
    </timestep>
    <timestep time="5.00">
        <person id="p0" x="113.85" y="81.40" angle="0.00" speed="1.30" pos="81.40" edge="SC" slope="0.00"/>
    </timestep>
    <timestep time="6.00">
        <person id="p0" x="113.85" y="82.40" angle="0.00" speed="1.46" pos="82.40" edge="SC" slope="0.00"/>
    </timestep>
    <timestep time="7.00">
        <person id="p0" x="113.85" y="83.40" angle="0.00" speed="1.25" pos="83.40" edge="SC" slope="0.00"/>
    </timestep>
    <timestep time="8.00">
        <person id="p0" x="113.85" y="84.40" angle="0.00" speed="1.40" pos="84.80" edge=":C_w2" slope="0.00"/>
    </timestep>
    <timestep time="9.00">
        <person id="p0" x="113.85" y="85.40" angle="0.00" speed="1.40" pos="6.40" edge=":C_w2" slope="0.00"/>
    </timestep>
    <timestep time="10.00">
        <person id="p0" x="113.85" y="86.40" angle="0.00" speed="0.00" pos="6.40" edge=":C_w2" slope="0.00"/>
    </timestep>
    <timestep time="11.00">
        <person id="p0" x="113.85" y="87.40" angle="0.00" speed="1.25" pos="6.40" edge=":C_w2" slope="0.00"/>
    </timestep>
    <timestep time="12.00">
        <person id="p0" x="113.85" y="88.40" angle="0.00" speed="0.00" pos="6.40" edge=":C_w2" slope="0.00"/>
    </timestep>
    <timestep time="13.00">
        <person id="p0" x="113.85" y="89.40" angle="0.00" speed="1.27" pos="6.40" edge=":C_w2" slope="0.00"/>
    </timestep>
    <timestep time="14.00">
        <person id="p0" x="113.85" y="90.40" angle="0.00" speed="0.00" pos="6.40" edge=":C_w2" slope="0.00"/>
    </timestep>
    <timestep time="15.00">
        <person id="p0" x="113.85" y="91.40" angle="0.00" speed="1.34" pos="6.40" edge=":C_w2" slope="0.00"/>
    </timestep>
    <timestep time="16.00">
        <person id="p0" x="113.85" y="92.40" angle="0.00" speed="0.00" pos="6.40" edge=":C_w2" slope="0.00"/>
    </timestep>
    <timestep time="17.00">
        <person id="p0" x="113.85" y="93.40" angle="0.00" speed="1.39" pos="6.40" edge=":C_w2" slope="0.00"/>
    </timestep>
    <timestep time="18.00">
        <person id="p0" x="113.84" y="94.40" angle="81.23" speed="0.00" pos="9.28" edge=":C_31" slope="0.00"/>
    </timestep>
    <timestep time="19.00">
        <person id="p0" x="113.79" y="95.39" angle="81.23" speed="1.21" pos="9.37" edge=":C_31" slope="0.00"/>
    </timestep>
    <timestep time="20.00">
        <person id="p0" x="113.79" y="96.39" angle="0.00" speed="1.38" pos="4.04" edge=":C_c1" slope="0.00"/>
    </timestep>
    <timestep time="21.00">
        <person id="p0" x="113.79" y="97.39" angle="0.00" speed="1.27" pos="5.04" edge=":C_c1" slope="0.00"/>
    </timestep>
    <timestep time="22.00">
        <person id="p0" x="113.79" y="98.39" angle="97.73" speed="1.46" pos="16.44" edge=":C_26" slope="0.00"/>
    </timestep>
    <timestep time="23.00">
        <person id="p0" x="113.80" y="99.39" angle="97.73" speed="1.32" pos="16.31" edge=":C_26" slope="0.00"/>
    </timestep>
    <timestep time="24.00">
        <person id="p0" x="113.80" y="100.39" angle="97.73" speed="1.38" pos="16.18" edge=":C_26" slope="0.00"/>
    </timestep>
    <timestep time="25.00">
        <person id="p0" x="113.80" y="101.39" angle="0.00" speed="1.29" pos="9.04" edge=":C_c1" slope="0.00"/>
    </timestep>
    <timestep time="26.00">
        <person id="p0" x="113.80" y="102.39" angle="0.00" speed="1.20" pos="10.04" edge=":C_c1" slope="0.00"/>
    </timestep>
    <timestep time="27.00">
        <person id="p0" x="113.80" y="103.39" angle="0.00" speed="1.23" pos="11.04" edge=":C_c1" slope="0.00"/>
    </timestep>
    <timestep time="28.00">
        <person id="p0" x="113.80" y="104.39" angle="0.00" speed="1.21" pos="12.04" edge=":C_c1" slope="0.00"/>
    </timestep>
    <timestep time="29.00">
        <person id="p0" x="113.80" y="105.39" angle="0.00" speed="1.36" pos="13.04" edge=":C_c1" slope="0.00"/>
    </timestep>
    <timestep time="30.00">
        <person id="p0" x="113.80" y="106.39" angle="0.00" speed="1.31" pos="14.35" edge=":C_w1" slope="0.00"/>
    </timestep>
    <timestep time="31.00">
        <person id="p0" x="113.80" y="107.39" angle="0.00" speed="1.31" pos="6.79" edge=":C_w1" slope="0.00"/>
    </timestep>
    <timestep time="32.00">
        <person id="p0" x="113.80" y="108.39" angle="0.00" speed="1.31" pos="0.74" edge=":C_w1" slope="0.00"/>
    </timestep>
    <timestep time="33.00">
        <person id="p0" x="112.91" y="110.75" angle="0.00" speed="0.67" pos="1.27" edge=":C_w1" slope="0.00"/>
    </timestep>
    <timestep time="34.00">
        <person id="p0" x="112.91" y="111.75" angle="0.00" speed="1.46" pos="1.86" edge=":C_w1" slope="0.00"/>
    </timestep>
    <timestep time="35.00">
        <person id="p0" x="112.91" y="112.75" angle="0.00" speed="1.38" pos="2.44" edge=":C_w1" slope="0.00"/>
    </timestep>
    <timestep time="36.00">
        <person id="p0" x="112.91" y="113.75" angle="0.00" speed="1.25" pos="3.02" edge=":C_w1" slope="0.00"/>
    </timestep>
    <timestep time="37.00">
        <person id="p0" x="112.91" y="114.75" angle="0.00" speed="1.43" pos="3.61" edge=":C_w1" slope="0.00"/>
    </timestep>
    <timestep time="38.00">
        <person id="p0" x="112.91" y="115.75" angle="0.00" speed="1.19" pos="2.65" edge=":C_w1" slope="0.00"/>
    </timestep>
    <timestep time="39.00">
        <person id="p0" x="112.91" y="116.75" angle="0.00" speed="1.46" pos="3.65" edge=":C_w1" slope="0.00"/>
    </timestep>
    <timestep time="40.00">
        <person id="p0" x="112.91" y="117.75" angle="0.00" speed="1.27" pos="4.65" edge=":C_w1" slope="0.00"/>
    </timestep>
    <timestep time="41.00">
        <person id="p0" x="112.91" y="118.75" angle="0.00" speed="1.37" pos="5.65" edge=":C_w1" slope="0.00"/>
    </timestep>
    <timestep time="42.00">
        <person id="p0" x="112.91" y="119.75" angle="0.00" speed="1.43" pos="6.65" edge=":C_w1" slope="0.00"/>
    </timestep>
    <timestep time="43.00">
        <person id="p0" x="112.91" y="120.75" angle="0.00" speed="1.44" pos="7.65" edge=":C_w1" slope="0.00"/>
    </timestep>
    <timestep time="44.00">
        <person id="p0" x="112.91" y="121.75" angle="0.00" speed="1.35" pos="8.65" edge=":C_w1" slope="0.00"/>
    </timestep>
    <timestep time="45.00">
        <person id="p0" x="112.91" y="122.75" angle="0.00" speed="1.19" pos="9.65" edge=":C_w1" slope="0.00"/>
    </timestep>
    <timestep time="46.00">
        <person id="p0" x="112.91" y="123.75" angle="0.00" speed="1.39" pos="10.65" edge=":C_w1" slope="0.00"/>
    </timestep>
    <timestep time="47.00">
        <person id="p0" x="112.91" y="124.75" angle="0.00" speed="1.41" pos="11.65" edge=":C_w1" slope="0.00"/>
    </timestep>
    <timestep time="48.00">
        <person id="p0" x="112.91" y="125.75" angle="0.00" speed="1.42" pos="12.65" edge=":C_w1" slope="0.00"/>
    </timestep>
    <timestep time="49.00">
        <person id="p0" x="112.91" y="126.75" angle="0.00" speed="1.30" pos="13.65" edge=":C_w1" slope="0.00"/>
    </timestep>
    <timestep time="50.00">
        <person id="p0" x="112.91" y="127.75" angle="0.00" speed="1.40" pos="14.65" edge=":C_w1" slope="0.00"/>
    </timestep>
    <timestep time="51.00">
        <person id="p0" x="112.91" y="128.75" angle="0.00" speed="1.23" pos="15.65" edge=":C_w1" slope="0.00"/>
    </timestep>
    <timestep time="52.00">
        <person id="p0" x="112.91" y="129.75" angle="0.00" speed="1.45" pos="16.65" edge=":C_w1" slope="0.00"/>
    </timestep>
    <timestep time="53.00">
        <person id="p0" x="112.91" y="130.75" angle="0.00" speed="1.28" pos="17.65" edge=":C_w1" slope="0.00"/>
    </timestep>
    <timestep time="54.00">
        <person id="p0" x="112.91" y="131.75" angle="0.00" speed="1.26" pos="18.65" edge=":C_w1" slope="0.00"/>
    </timestep>
    <timestep time="55.00">
        <person id="p0" x="112.91" y="132.75" angle="0.00" speed="1.30" pos="19.65" edge=":C_w1" slope="0.00"/>
    </timestep>
    <timestep time="56.00">
        <person id="p0" x="112.91" y="133.75" angle="0.00" speed="1.27" pos="20.65" edge=":C_w1" slope="0.00"/>
    </timestep>
    <timestep time="57.00">
        <person id="p0" x="112.91" y="134.75" angle="0.00" speed="1.20" pos="21.65" edge=":C_w1" slope="0.00"/>
    </timestep>
    <timestep time="58.00">
        <person id="p0" x="112.91" y="135.75" angle="0.00" speed="1.19" pos="22.65" edge=":C_w1" slope="0.00"/>
    </timestep>
    <timestep time="59.00">
        <person id="p0" x="112.91" y="136.75" angle="0.00" speed="1.38" pos="23.65" edge=":C_w1" slope="0.00"/>
    </timestep>
    <timestep time="60.00">
        <person id="p0" x="112.91" y="137.75" angle="0.00" speed="1.33" pos="24.65" edge=":C_w1" slope="0.00"/>
    </timestep>
    <timestep time="61.00">
        <person id="p0" x="112.91" y="138.75" angle="0.00" speed="1.30" pos="25.65" edge=":C_w1" slope="0.00"/>
    </timestep>
    <timestep time="62.00">
        <person id="p0" x="112.91" y="139.75" angle="0.00" speed="1.42" pos="26.65" edge=":C_w1" slope="0.00"/>
    </timestep>
    <timestep time="63.00">
        <person id="p0" x="112.91" y="140.75" angle="0.00" speed="1.19" pos="27.65" edge=":C_w1" slope="0.00"/>
    </timestep>
    <timestep time="64.00">
        <person id="p0" x="112.91" y="141.75" angle="0.00" speed="1.42" pos="28.65" edge=":C_w1" slope="0.00"/>
    </timestep>
    <timestep time="65.00">
        <person id="p0" x="112.91" y="142.75" angle="0.00" speed="1.28" pos="29.65" edge=":C_w1" slope="0.00"/>
    </timestep>
    <timestep time="66.00">
        <person id="p0" x="112.91" y="143.75" angle="0.00" speed="1.43" pos="30.65" edge=":C_w1" slope="0.00"/>
    </timestep>
    <timestep time="67.00">
        <person id="p0" x="112.91" y="144.75" angle="0.00" speed="1.46" pos="31.65" edge=":C_w1" slope="0.00"/>
    </timestep>
    <timestep time="68.00">
        <person id="p0" x="112.91" y="145.75" angle="0.00" speed="1.39" pos="32.65" edge=":C_w1" slope="0.00"/>
    </timestep>
    <timestep time="69.00">
        <person id="p0" x="112.91" y="146.75" angle="0.00" speed="1.31" pos="33.65" edge=":C_w1" slope="0.00"/>
    </timestep>
    <timestep time="70.00">
        <person id="p0" x="112.91" y="147.75" angle="0.00" speed="1.20" pos="34.65" edge=":C_w1" slope="0.00"/>
    </timestep>
    <timestep time="71.00">
        <person id="p0" x="112.91" y="148.75" angle="0.00" speed="1.45" pos="35.65" edge=":C_w1" slope="0.00"/>
    </timestep>
    <timestep time="72.00">
        <person id="p0" x="112.91" y="149.75" angle="0.00" speed="1.42" pos="36.65" edge=":C_w1" slope="0.00"/>
    </timestep>
    <timestep time="73.00">
        <person id="p0" x="112.91" y="150.75" angle="0.00" speed="1.18" pos="37.65" edge=":C_w1" slope="0.00"/>
    </timestep>
    <timestep time="74.00">
        <person id="p0" x="112.91" y="151.75" angle="0.00" speed="1.38" pos="38.65" edge=":C_w1" slope="0.00"/>
    </timestep>
    <timestep time="75.00">
        <person id="p0" x="112.91" y="152.75" angle="0.00" speed="1.37" pos="39.65" edge=":C_w1" slope="0.00"/>
    </timestep>
    <timestep time="76.00">
        <person id="p0" x="112.91" y="153.75" angle="0.00" speed="1.45" pos="40.65" edge=":C_w1" slope="0.00"/>
    </timestep>
    <timestep time="77.00">
        <person id="p0" x="112.91" y="154.75" angle="0.00" speed="1.31" pos="41.65" edge=":C_w1" slope="0.00"/>
    </timestep>
    <timestep time="78.00">
        <person id="p0" x="112.91" y="155.75" angle="0.00" speed="1.41" pos="42.65" edge=":C_w1" slope="0.00"/>
    </timestep>
    <timestep time="79.00">
        <person id="p0" x="112.91" y="156.75" angle="0.00" speed="1.42" pos="43.65" edge=":C_w1" slope="0.00"/>
    </timestep>
</fcd-export>
