<?xml version="1.0" encoding="UTF-8"?>

<!-- generated on Wed Mar 11 22:24:10 2020 by Eclipse SUMO Version v1_5_0+0662-a598ecae47
This data file and the accompanying materials
are made available under the terms of the Eclipse Public License v2.0
which accompanies this distribution, and is available at
http://www.eclipse.org/legal/epl-v20.html
SPDX-License-Identifier: EPL-2.0
<configuration xmlns:xsi="http://www.w3.org/2001/XMLSchema-instance" xsi:noNamespaceSchemaLocation="http://sumo.dlr.de/xsd/sumoConfiguration.xsd">

    <input>
        <net-file value="net.net.xml"/>
        <route-files value="input_routes.rou.xml"/>
    </input>

    <output>
        <write-license value="true"/>
        <fcd-output value="fcd.xml"/>
    </output>

    <processing>
        <collision.mingap-factor value="0"/>
        <default.carfollowmodel value="IDM"/>
        <default.speeddev value="0"/>
    </processing>

    <report>
        <xml-validation value="never"/>
        <no-step-log value="true"/>
    </report>

    <driver_state_device>
        <device.driverstate.probability value="1"/>
        <device.driverstate.initialAwareness value="0.5"/>
    </driver_state_device>

</configuration>
-->

<fcd-export xmlns:xsi="http://www.w3.org/2001/XMLSchema-instance" xsi:noNamespaceSchemaLocation="http://sumo.dlr.de/xsd/fcd_file.xsd">
    <timestep time="0.00">
        <vehicle id="first" x="5.10" y="0.00" angle="90.00" type="tFirst" speed="30.00" pos="5.10" lane="0_0" slope="0.00"/>
    </timestep>
    <timestep time="1.00">
        <vehicle id="first" x="35.10" y="0.00" angle="90.00" type="tFirst" speed="30.00" pos="35.10" lane="0_0" slope="0.00"/>
    </timestep>
    <timestep time="2.00">
        <vehicle id="first" x="65.09" y="0.00" angle="90.00" type="tFirst" speed="29.99" pos="65.09" lane="0_0" slope="0.00"/>
        <vehicle id="flow.0" x="5.10" y="0.00" angle="90.00" type="tFlow" speed="32.97" pos="5.10" lane="0_0" slope="0.00"/>
    </timestep>
    <timestep time="3.00">
        <vehicle id="first" x="95.08" y="0.00" angle="90.00" type="tFirst" speed="29.99" pos="95.08" lane="0_0" slope="0.00"/>
        <vehicle id="flow.0" x="37.08" y="0.00" angle="90.00" type="tFlow" speed="31.98" pos="37.08" lane="0_0" slope="0.00"/>
    </timestep>
    <timestep time="4.00">
        <vehicle id="first" x="125.08" y="0.00" angle="90.00" type="tFirst" speed="29.99" pos="125.08" lane="0_0" slope="0.00"/>
        <vehicle id="flow.0" x="68.17" y="0.00" angle="90.00" type="tFlow" speed="31.09" pos="68.17" lane="0_0" slope="0.00"/>
        <vehicle id="flow.1" x="5.10" y="0.00" angle="90.00" type="tFlow" speed="33.62" pos="5.10" lane="0_0" slope="0.00"/>
    </timestep>
    <timestep time="5.00">
        <vehicle id="first" x="155.07" y="0.00" angle="90.00" type="tFirst" speed="29.99" pos="155.07" lane="0_0" slope="0.00"/>
        <vehicle id="flow.0" x="98.40" y="0.00" angle="90.00" type="tFlow" speed="30.23" pos="98.40" lane="0_0" slope="0.00"/>
        <vehicle id="flow.1" x="37.68" y="0.00" angle="90.00" type="tFlow" speed="32.58" pos="37.68" lane="0_0" slope="0.00"/>
    </timestep>
    <timestep time="6.00">
        <vehicle id="first" x="185.06" y="0.00" angle="90.00" type="tFirst" speed="29.99" pos="185.06" lane="0_0" slope="0.00"/>
        <vehicle id="flow.0" x="128.01" y="0.00" angle="90.00" type="tFlow" speed="29.61" pos="128.01" lane="0_0" slope="0.00"/>
        <vehicle id="flow.1" x="69.34" y="0.00" angle="90.00" type="tFlow" speed="31.66" pos="69.34" lane="0_0" slope="0.00"/>
        <vehicle id="flow.2" x="5.10" y="0.00" angle="90.00" type="tFlow" speed="33.89" pos="5.10" lane="0_0" slope="0.00"/>
    </timestep>
    <timestep time="7.00">
        <vehicle id="first" x="215.05" y="0.00" angle="90.00" type="tFirst" speed="29.99" pos="215.05" lane="0_0" slope="0.00"/>
        <vehicle id="flow.0" x="158.09" y="0.00" angle="90.00" type="tFlow" speed="30.07" pos="158.09" lane="0_0" slope="0.00"/>
        <vehicle id="flow.1" x="100.14" y="0.00" angle="90.00" type="tFlow" speed="30.81" pos="100.14" lane="0_0" slope="0.00"/>
        <vehicle id="flow.2" x="38.01" y="0.00" angle="90.00" type="tFlow" speed="32.91" pos="38.01" lane="0_0" slope="0.00"/>
    </timestep>
    <timestep time="8.00">
        <vehicle id="first" x="245.04" y="0.00" angle="90.00" type="tFirst" speed="29.99" pos="245.04" lane="0_0" slope="0.00"/>
        <vehicle id="flow.0" x="188.55" y="0.00" angle="90.00" type="tFlow" speed="30.46" pos="188.55" lane="0_0" slope="0.00"/>
        <vehicle id="flow.1" x="130.29" y="0.00" angle="90.00" type="tFlow" speed="30.15" pos="130.29" lane="0_0" slope="0.00"/>
        <vehicle id="flow.2" x="70.06" y="0.00" angle="90.00" type="tFlow" speed="32.06" pos="70.06" lane="0_0" slope="0.00"/>
    </timestep>
    <timestep time="9.00">
        <vehicle id="first" x="275.04" y="0.00" angle="90.00" type="tFirst" speed="29.99" pos="275.04" lane="0_0" slope="0.00"/>
        <vehicle id="flow.0" x="219.34" y="0.00" angle="90.00" type="tFlow" speed="30.79" pos="219.34" lane="0_0" slope="0.00"/>
        <vehicle id="flow.1" x="160.70" y="0.00" angle="90.00" type="tFlow" speed="30.41" pos="160.70" lane="0_0" slope="0.00"/>
        <vehicle id="flow.2" x="101.35" y="0.00" angle="90.00" type="tFlow" speed="31.28" pos="101.35" lane="0_0" slope="0.00"/>
    </timestep>
    <timestep time="10.00">
        <vehicle id="first" x="305.03" y="0.00" angle="90.00" type="tFirst" speed="29.99" pos="305.03" lane="0_0" slope="0.00"/>
        <vehicle id="flow.0" x="250.27" y="0.00" angle="90.00" type="tFlow" speed="30.94" pos="250.27" lane="0_0" slope="0.00"/>
        <vehicle id="flow.1" x="191.33" y="0.00" angle="90.00" type="tFlow" speed="30.63" pos="191.33" lane="0_0" slope="0.00"/>
        <vehicle id="flow.2" x="131.90" y="0.00" angle="90.00" type="tFlow" speed="30.56" pos="131.90" lane="0_0" slope="0.00"/>
    </timestep>
    <timestep time="11.00">
        <vehicle id="first" x="335.02" y="0.00" angle="90.00" type="tFirst" speed="29.99" pos="335.02" lane="0_0" slope="0.00"/>
        <vehicle id="flow.0" x="281.35" y="0.00" angle="90.00" type="tFlow" speed="31.07" pos="281.35" lane="0_0" slope="0.00"/>
        <vehicle id="flow.1" x="222.14" y="0.00" angle="90.00" type="tFlow" speed="30.81" pos="222.14" lane="0_0" slope="0.00"/>
        <vehicle id="flow.2" x="162.09" y="0.00" angle="90.00" type="tFlow" speed="30.19" pos="162.09" lane="0_0" slope="0.00"/>
    </timestep>
    <timestep time="12.00">
        <vehicle id="first" x="365.01" y="0.00" angle="90.00" type="tFirst" speed="29.99" pos="365.01" lane="0_0" slope="0.00"/>
        <vehicle id="flow.0" x="312.55" y="0.00" angle="90.00" type="tFlow" speed="31.20" pos="312.55" lane="0_0" slope="0.00"/>
        <vehicle id="flow.1" x="253.09" y="0.00" angle="90.00" type="tFlow" speed="30.95" pos="253.09" lane="0_0" slope="0.00"/>
        <vehicle id="flow.2" x="192.77" y="0.00" angle="90.00" type="tFlow" speed="30.68" pos="192.77" lane="0_0" slope="0.00"/>
    </timestep>
    <timestep time="13.00">
        <vehicle id="first" x="395.00" y="0.00" angle="90.00" type="tFirst" speed="29.99" pos="395.00" lane="0_0" slope="0.00"/>
        <vehicle id="flow.0" x="343.77" y="0.00" angle="90.00" type="tFlow" speed="31.22" pos="343.77" lane="0_0" slope="0.00"/>
        <vehicle id="flow.1" x="284.15" y="0.00" angle="90.00" type="tFlow" speed="31.07" pos="284.15" lane="0_0" slope="0.00"/>
        <vehicle id="flow.2" x="223.87" y="0.00" angle="90.00" type="tFlow" speed="31.10" pos="223.87" lane="0_0" slope="0.00"/>
    </timestep>
    <timestep time="14.00">
        <vehicle id="first" x="424.99" y="0.00" angle="90.00" type="tFirst" speed="29.99" pos="424.99" lane="0_0" slope="0.00"/>
        <vehicle id="flow.0" x="375.03" y="0.00" angle="90.00" type="tFlow" speed="31.26" pos="375.03" lane="0_0" slope="0.00"/>
        <vehicle id="flow.1" x="315.42" y="0.00" angle="90.00" type="tFlow" speed="31.26" pos="315.42" lane="0_0" slope="0.00"/>
        <vehicle id="flow.2" x="255.32" y="0.00" angle="90.00" type="tFlow" speed="31.45" pos="255.32" lane="0_0" slope="0.00"/>
    </timestep>
    <timestep time="15.00">
        <vehicle id="first" x="454.98" y="0.00" angle="90.00" type="tFirst" speed="29.99" pos="454.98" lane="0_0" slope="0.00"/>
        <vehicle id="flow.0" x="406.21" y="0.00" angle="90.00" type="tFlow" speed="31.18" pos="406.21" lane="0_0" slope="0.00"/>
        <vehicle id="flow.1" x="346.84" y="0.00" angle="90.00" type="tFlow" speed="31.42" pos="346.84" lane="0_0" slope="0.00"/>
        <vehicle id="flow.2" x="286.99" y="0.00" angle="90.00" type="tFlow" speed="31.67" pos="286.99" lane="0_0" slope="0.00"/>
    </timestep>
    <timestep time="16.00">
        <vehicle id="first" x="484.97" y="0.00" angle="90.00" type="tFirst" speed="29.99" pos="484.97" lane="0_0" slope="0.00"/>
        <vehicle id="flow.0" x="437.23" y="0.00" angle="90.00" type="tFlow" speed="31.02" pos="437.23" lane="0_0" slope="0.00"/>
        <vehicle id="flow.1" x="378.38" y="0.00" angle="90.00" type="tFlow" speed="31.55" pos="378.38" lane="0_0" slope="0.00"/>
        <vehicle id="flow.2" x="318.85" y="0.00" angle="90.00" type="tFlow" speed="31.86" pos="318.85" lane="0_0" slope="0.00"/>
    </timestep>
    <timestep time="17.00">
        <vehicle id="first" x="514.96" y="0.00" angle="90.00" type="tFirst" speed="29.99" pos="514.96" lane="0_0" slope="0.00"/>
        <vehicle id="flow.0" x="468.15" y="0.00" angle="90.00" type="tFlow" speed="30.92" pos="468.15" lane="0_0" slope="0.00"/>
        <vehicle id="flow.1" x="410.03" y="0.00" angle="90.00" type="tFlow" speed="31.65" pos="410.03" lane="0_0" slope="0.00"/>
        <vehicle id="flow.2" x="350.88" y="0.00" angle="90.00" type="tFlow" speed="32.03" pos="350.88" lane="0_0" slope="0.00"/>
    </timestep>
    <timestep time="18.00">
        <vehicle id="first" x="544.95" y="0.00" angle="90.00" type="tFirst" speed="29.99" pos="544.95" lane="0_0" slope="0.00"/>
        <vehicle id="flow.0" x="499.01" y="0.00" angle="90.00" type="tFlow" speed="30.86" pos="499.01" lane="0_0" slope="0.00"/>
        <vehicle id="flow.1" x="441.68" y="0.00" angle="90.00" type="tFlow" speed="31.65" pos="441.68" lane="0_0" slope="0.00"/>
        <vehicle id="flow.2" x="383.07" y="0.00" angle="90.00" type="tFlow" speed="32.18" pos="383.07" lane="0_0" slope="0.00"/>
    </timestep>
    <timestep time="19.00">
        <vehicle id="first" x="574.94" y="0.00" angle="90.00" type="tFirst" speed="29.99" pos="574.94" lane="0_0" slope="0.00"/>
        <vehicle id="flow.0" x="529.74" y="0.00" angle="90.00" type="tFlow" speed="30.73" pos="529.74" lane="0_0" slope="0.00"/>
        <vehicle id="flow.1" x="473.34" y="0.00" angle="90.00" type="tFlow" speed="31.65" pos="473.34" lane="0_0" slope="0.00"/>
        <vehicle id="flow.2" x="415.30" y="0.00" angle="90.00" type="tFlow" speed="32.24" pos="415.30" lane="0_0" slope="0.00"/>
    </timestep>
    <timestep time="20.00">
        <vehicle id="first" x="604.93" y="0.00" angle="90.00" type="tFirst" speed="29.99" pos="604.93" lane="0_0" slope="0.00"/>
        <vehicle id="flow.0" x="560.29" y="0.00" angle="90.00" type="tFlow" speed="30.55" pos="560.29" lane="0_0" slope="0.00"/>
        <vehicle id="flow.1" x="504.91" y="0.00" angle="90.00" type="tFlow" speed="31.57" pos="504.91" lane="0_0" slope="0.00"/>
        <vehicle id="flow.2" x="447.60" y="0.00" angle="90.00" type="tFlow" speed="32.30" pos="447.60" lane="0_0" slope="0.00"/>
    </timestep>
    <timestep time="21.00">
        <vehicle id="first" x="634.92" y="0.00" angle="90.00" type="tFirst" speed="29.99" pos="634.92" lane="0_0" slope="0.00"/>
        <vehicle id="flow.0" x="590.71" y="0.00" angle="90.00" type="tFlow" speed="30.43" pos="590.71" lane="0_0" slope="0.00"/>
        <vehicle id="flow.1" x="536.43" y="0.00" angle="90.00" type="tFlow" speed="31.52" pos="536.43" lane="0_0" slope="0.00"/>
        <vehicle id="flow.2" x="479.86" y="0.00" angle="90.00" type="tFlow" speed="32.26" pos="479.86" lane="0_0" slope="0.00"/>
    </timestep>
    <timestep time="22.00">
        <vehicle id="first" x="664.91" y="0.00" angle="90.00" type="tFirst" speed="29.99" pos="664.91" lane="0_0" slope="0.00"/>
        <vehicle id="flow.0" x="621.07" y="0.00" angle="90.00" type="tFlow" speed="30.36" pos="621.07" lane="0_0" slope="0.00"/>
        <vehicle id="flow.1" x="567.81" y="0.00" angle="90.00" type="tFlow" speed="31.38" pos="567.81" lane="0_0" slope="0.00"/>
        <vehicle id="flow.2" x="512.12" y="0.00" angle="90.00" type="tFlow" speed="32.26" pos="512.12" lane="0_0" slope="0.00"/>
    </timestep>
    <timestep time="23.00">
        <vehicle id="first" x="694.90" y="0.00" angle="90.00" type="tFirst" speed="29.99" pos="694.90" lane="0_0" slope="0.00"/>
        <vehicle id="flow.0" x="651.26" y="0.00" angle="90.00" type="tFlow" speed="30.19" pos="651.26" lane="0_0" slope="0.00"/>
        <vehicle id="flow.1" x="599.09" y="0.00" angle="90.00" type="tFlow" speed="31.28" pos="599.09" lane="0_0" slope="0.00"/>
        <vehicle id="flow.2" x="544.32" y="0.00" angle="90.00" type="tFlow" speed="32.20" pos="544.32" lane="0_0" slope="0.00"/>
    </timestep>
    <timestep time="24.00">
        <vehicle id="first" x="724.89" y="0.00" angle="90.00" type="tFirst" speed="29.99" pos="724.89" lane="0_0" slope="0.00"/>
        <vehicle id="flow.0" x="681.34" y="0.00" angle="90.00" type="tFlow" speed="30.08" pos="681.34" lane="0_0" slope="0.00"/>
        <vehicle id="flow.1" x="630.29" y="0.00" angle="90.00" type="tFlow" speed="31.20" pos="630.29" lane="0_0" slope="0.00"/>
        <vehicle id="flow.2" x="576.50" y="0.00" angle="90.00" type="tFlow" speed="32.18" pos="576.50" lane="0_0" slope="0.00"/>
    </timestep>
    <timestep time="25.00">
        <vehicle id="first" x="754.88" y="0.00" angle="90.00" type="tFirst" speed="29.99" pos="754.88" lane="0_0" slope="0.00"/>
        <vehicle id="flow.0" x="711.35" y="0.00" angle="90.00" type="tFlow" speed="30.01" pos="711.35" lane="0_0" slope="0.00"/>
        <vehicle id="flow.1" x="661.30" y="0.00" angle="90.00" type="tFlow" speed="31.01" pos="661.30" lane="0_0" slope="0.00"/>
        <vehicle id="flow.2" x="608.58" y="0.00" angle="90.00" type="tFlow" speed="32.08" pos="608.58" lane="0_0" slope="0.00"/>
    </timestep>
    <timestep time="26.00">
        <vehicle id="first" x="784.87" y="0.00" angle="90.00" type="tFirst" speed="29.99" pos="784.87" lane="0_0" slope="0.00"/>
        <vehicle id="flow.0" x="741.24" y="0.00" angle="90.00" type="tFlow" speed="29.89" pos="741.24" lane="0_0" slope="0.00"/>
        <vehicle id="flow.1" x="692.15" y="0.00" angle="90.00" type="tFlow" speed="30.85" pos="692.15" lane="0_0" slope="0.00"/>
        <vehicle id="flow.2" x="640.51" y="0.00" angle="90.00" type="tFlow" speed="31.93" pos="640.51" lane="0_0" slope="0.00"/>
    </timestep>
    <timestep time="27.00">
        <vehicle id="first" x="814.86" y="0.00" angle="90.00" type="tFirst" speed="29.99" pos="814.86" lane="0_0" slope="0.00"/>
        <vehicle id="flow.0" x="771.05" y="0.00" angle="90.00" type="tFlow" speed="29.81" pos="771.05" lane="0_0" slope="0.00"/>
        <vehicle id="flow.1" x="722.89" y="0.00" angle="90.00" type="tFlow" speed="30.74" pos="722.89" lane="0_0" slope="0.00"/>
        <vehicle id="flow.2" x="672.36" y="0.00" angle="90.00" type="tFlow" speed="31.85" pos="672.36" lane="0_0" slope="0.00"/>
    </timestep>
    <timestep time="28.00">
        <vehicle id="first" x="844.85" y="0.00" angle="90.00" type="tFirst" speed="29.99" pos="844.85" lane="0_0" slope="0.00"/>
        <vehicle id="flow.0" x="800.83" y="0.00" angle="90.00" type="tFlow" speed="29.78" pos="800.83" lane="0_0" slope="0.00"/>
        <vehicle id="flow.1" x="753.54" y="0.00" angle="90.00" type="tFlow" speed="30.65" pos="753.54" lane="0_0" slope="0.00"/>
        <vehicle id="flow.2" x="704.07" y="0.00" angle="90.00" type="tFlow" speed="31.71" pos="704.07" lane="0_0" slope="0.00"/>
    </timestep>
    <timestep time="29.00">
        <vehicle id="first" x="874.83" y="0.00" angle="90.00" type="tFirst" speed="29.99" pos="874.83" lane="0_0" slope="0.00"/>
        <vehicle id="flow.0" x="830.49" y="0.00" angle="90.00" type="tFlow" speed="29.66" pos="830.49" lane="0_0" slope="0.00"/>
        <vehicle id="flow.1" x="783.98" y="0.00" angle="90.00" type="tFlow" speed="30.44" pos="783.98" lane="0_0" slope="0.00"/>
        <vehicle id="flow.2" x="735.61" y="0.00" angle="90.00" type="tFlow" speed="31.54" pos="735.61" lane="0_0" slope="0.00"/>
    </timestep>
    <timestep time="30.00">
        <vehicle id="first" x="904.82" y="0.00" angle="90.00" type="tFirst" speed="29.99" pos="904.82" lane="0_0" slope="0.00"/>
        <vehicle id="flow.0" x="860.08" y="0.00" angle="90.00" type="tFlow" speed="29.59" pos="860.08" lane="0_0" slope="0.00"/>
        <vehicle id="flow.1" x="814.26" y="0.00" angle="90.00" type="tFlow" speed="30.28" pos="814.26" lane="0_0" slope="0.00"/>
        <vehicle id="flow.2" x="767.05" y="0.00" angle="90.00" type="tFlow" speed="31.44" pos="767.05" lane="0_0" slope="0.00"/>
    </timestep>
    <timestep time="31.00">
        <vehicle id="first" x="934.81" y="0.00" angle="90.00" type="tFirst" speed="29.99" pos="934.81" lane="0_0" slope="0.00"/>
        <vehicle id="flow.0" x="889.63" y="0.00" angle="90.00" type="tFlow" speed="29.55" pos="889.63" lane="0_0" slope="0.00"/>
        <vehicle id="flow.1" x="844.30" y="0.00" angle="90.00" type="tFlow" speed="30.04" pos="844.30" lane="0_0" slope="0.00"/>
        <vehicle id="flow.2" x="797.53" y="0.00" angle="90.00" type="tFlow" speed="30.48" pos="797.53" lane="0_0" slope="0.00"/>
    </timestep>
    <timestep time="32.00">
        <vehicle id="first" x="964.80" y="0.00" angle="90.00" type="tFirst" speed="29.99" pos="964.80" lane="0_0" slope="0.00"/>
        <vehicle id="flow.0" x="919.19" y="0.00" angle="90.00" type="tFlow" speed="29.55" pos="919.19" lane="0_0" slope="0.00"/>
        <vehicle id="flow.1" x="874.17" y="0.00" angle="90.00" type="tFlow" speed="29.86" pos="874.17" lane="0_0" slope="0.00"/>
        <vehicle id="flow.2" x="827.15" y="0.00" angle="90.00" type="tFlow" speed="29.63" pos="827.15" lane="0_0" slope="0.00"/>
    </timestep>
    <timestep time="33.00">
        <vehicle id="first" x="994.79" y="0.00" angle="90.00" type="tFirst" speed="29.99" pos="994.79" lane="0_0" slope="0.00"/>
        <vehicle id="flow.0" x="948.76" y="0.00" angle="90.00" type="tFlow" speed="29.58" pos="948.76" lane="0_0" slope="0.00"/>
        <vehicle id="flow.1" x="903.89" y="0.00" angle="90.00" type="tFlow" speed="29.72" pos="903.89" lane="0_0" slope="0.00"/>
        <vehicle id="flow.2" x="856.20" y="0.00" angle="90.00" type="tFlow" speed="29.04" pos="856.20" lane="0_0" slope="0.00"/>
    </timestep>
    <timestep time="34.00">
        <vehicle id="first" x="1024.77" y="0.00" angle="90.00" type="tFirst" speed="29.99" pos="1024.77" lane="0_0" slope="0.00"/>
        <vehicle id="flow.0" x="978.39" y="0.00" angle="90.00" type="tFlow" speed="29.62" pos="978.39" lane="0_0" slope="0.00"/>
        <vehicle id="flow.1" x="933.50" y="0.00" angle="90.00" type="tFlow" speed="29.61" pos="933.50" lane="0_0" slope="0.00"/>
        <vehicle id="flow.2" x="884.83" y="0.00" angle="90.00" type="tFlow" speed="28.64" pos="884.83" lane="0_0" slope="0.00"/>
    </timestep>
    <timestep time="35.00">
        <vehicle id="first" x="1054.76" y="0.00" angle="90.00" type="tFirst" speed="29.99" pos="1054.76" lane="0_0" slope="0.00"/>
        <vehicle id="flow.0" x="1008.06" y="0.00" angle="90.00" type="tFlow" speed="29.68" pos="1008.06" lane="0_0" slope="0.00"/>
        <vehicle id="flow.1" x="963.03" y="0.00" angle="90.00" type="tFlow" speed="29.53" pos="963.03" lane="0_0" slope="0.00"/>
        <vehicle id="flow.2" x="913.06" y="0.00" angle="90.00" type="tFlow" speed="28.22" pos="913.06" lane="0_0" slope="0.00"/>
    </timestep>
    <timestep time="36.00">
        <vehicle id="first" x="1084.75" y="0.00" angle="90.00" type="tFirst" speed="29.99" pos="1084.75" lane="0_0" slope="0.00"/>
        <vehicle id="flow.0" x="1037.81" y="0.00" angle="90.00" type="tFlow" speed="29.75" pos="1037.81" lane="0_0" slope="0.00"/>
        <vehicle id="flow.1" x="992.49" y="0.00" angle="90.00" type="tFlow" speed="29.47" pos="992.49" lane="0_0" slope="0.00"/>
        <vehicle id="flow.2" x="941.84" y="0.00" angle="90.00" type="tFlow" speed="28.79" pos="941.84" lane="0_0" slope="0.00"/>
    </timestep>
    <timestep time="37.00">
        <vehicle id="first" x="1114.74" y="0.00" angle="90.00" type="tFirst" speed="29.99" pos="1114.74" lane="0_0" slope="0.00"/>
        <vehicle id="flow.0" x="1067.64" y="0.00" angle="90.00" type="tFlow" speed="29.83" pos="1067.64" lane="0_0" slope="0.00"/>
        <vehicle id="flow.1" x="1021.92" y="0.00" angle="90.00" type="tFlow" speed="29.42" pos="1021.92" lane="0_0" slope="0.00"/>
        <vehicle id="flow.2" x="971.14" y="0.00" angle="90.00" type="tFlow" speed="29.29" pos="971.14" lane="0_0" slope="0.00"/>
    </timestep>
    <timestep time="38.00">
        <vehicle id="first" x="1144.72" y="0.00" angle="90.00" type="tFirst" speed="29.99" pos="1144.72" lane="0_0" slope="0.00"/>
        <vehicle id="flow.0" x="1097.55" y="0.00" angle="90.00" type="tFlow" speed="29.91" pos="1097.55" lane="0_0" slope="0.00"/>
        <vehicle id="flow.1" x="1051.31" y="0.00" angle="90.00" type="tFlow" speed="29.39" pos="1051.31" lane="0_0" slope="0.00"/>
        <vehicle id="flow.2" x="1000.88" y="0.00" angle="90.00" type="tFlow" speed="29.75" pos="1000.88" lane="0_0" slope="0.00"/>
    </timestep>
    <timestep time="39.00">
        <vehicle id="first" x="1174.71" y="0.00" angle="90.00" type="tFirst" speed="29.99" pos="1174.71" lane="0_0" slope="0.00"/>
        <vehicle id="flow.0" x="1127.55" y="0.00" angle="90.00" type="tFlow" speed="30.00" pos="1127.55" lane="0_0" slope="0.00"/>
        <vehicle id="flow.1" x="1080.67" y="0.00" angle="90.00" type="tFlow" speed="29.37" pos="1080.67" lane="0_0" slope="0.00"/>
        <vehicle id="flow.2" x="1031.04" y="0.00" angle="90.00" type="tFlow" speed="30.16" pos="1031.04" lane="0_0" slope="0.00"/>
    </timestep>
    <timestep time="40.00">
        <vehicle id="first" x="1204.70" y="0.00" angle="90.00" type="tFirst" speed="29.99" pos="1204.70" lane="0_0" slope="0.00"/>
        <vehicle id="flow.0" x="1157.64" y="0.00" angle="90.00" type="tFlow" speed="30.09" pos="1157.64" lane="0_0" slope="0.00"/>
        <vehicle id="flow.1" x="1110.03" y="0.00" angle="90.00" type="tFlow" speed="29.36" pos="1110.03" lane="0_0" slope="0.00"/>
        <vehicle id="flow.2" x="1061.43" y="0.00" angle="90.00" type="tFlow" speed="30.39" pos="1061.43" lane="0_0" slope="0.00"/>
    </timestep>
    <timestep time="41.00">
        <vehicle id="first" x="1234.68" y="0.00" angle="90.00" type="tFirst" speed="29.99" pos="1234.68" lane="0_0" slope="0.00"/>
        <vehicle id="flow.0" x="1187.83" y="0.00" angle="90.00" type="tFlow" speed="30.19" pos="1187.83" lane="0_0" slope="0.00"/>
        <vehicle id="flow.1" x="1139.38" y="0.00" angle="90.00" type="tFlow" speed="29.35" pos="1139.38" lane="0_0" slope="0.00"/>
        <vehicle id="flow.2" x="1091.26" y="0.00" angle="90.00" type="tFlow" speed="29.83" pos="1091.26" lane="0_0" slope="0.00"/>
    </timestep>
    <timestep time="42.00">
        <vehicle id="first" x="1264.67" y="0.00" angle="90.00" type="tFirst" speed="29.99" pos="1264.67" lane="0_0" slope="0.00"/>
        <vehicle id="flow.0" x="1218.11" y="0.00" angle="90.00" type="tFlow" speed="30.28" pos="1218.11" lane="0_0" slope="0.00"/>
        <vehicle id="flow.1" x="1168.88" y="0.00" angle="90.00" type="tFlow" speed="29.50" pos="1168.88" lane="0_0" slope="0.00"/>
        <vehicle id="flow.2" x="1120.57" y="0.00" angle="90.00" type="tFlow" speed="29.31" pos="1120.57" lane="0_0" slope="0.00"/>
    </timestep>
    <timestep time="43.00">
        <vehicle id="first" x="1294.66" y="0.00" angle="90.00" type="tFirst" speed="29.99" pos="1294.66" lane="0_0" slope="0.00"/>
        <vehicle id="flow.0" x="1248.49" y="0.00" angle="90.00" type="tFlow" speed="30.38" pos="1248.49" lane="0_0" slope="0.00"/>
        <vehicle id="flow.1" x="1198.51" y="0.00" angle="90.00" type="tFlow" speed="29.63" pos="1198.51" lane="0_0" slope="0.00"/>
        <vehicle id="flow.2" x="1149.63" y="0.00" angle="90.00" type="tFlow" speed="29.06" pos="1149.63" lane="0_0" slope="0.00"/>
    </timestep>
    <timestep time="44.00">
        <vehicle id="first" x="1324.65" y="0.00" angle="90.00" type="tFirst" speed="29.99" pos="1324.65" lane="0_0" slope="0.00"/>
        <vehicle id="flow.0" x="1278.96" y="0.00" angle="90.00" type="tFlow" speed="30.47" pos="1278.96" lane="0_0" slope="0.00"/>
        <vehicle id="flow.1" x="1228.24" y="0.00" angle="90.00" type="tFlow" speed="29.73" pos="1228.24" lane="0_0" slope="0.00"/>
        <vehicle id="flow.2" x="1179.15" y="0.00" angle="90.00" type="tFlow" speed="29.53" pos="1179.15" lane="0_0" slope="0.00"/>
    </timestep>
    <timestep time="45.00">
        <vehicle id="first" x="1354.63" y="0.00" angle="90.00" type="tFirst" speed="29.99" pos="1354.63" lane="0_0" slope="0.00"/>
        <vehicle id="flow.0" x="1309.44" y="0.00" angle="90.00" type="tFlow" speed="30.48" pos="1309.44" lane="0_0" slope="0.00"/>
        <vehicle id="flow.1" x="1258.06" y="0.00" angle="90.00" type="tFlow" speed="29.82" pos="1258.06" lane="0_0" slope="0.00"/>
        <vehicle id="flow.2" x="1209.10" y="0.00" angle="90.00" type="tFlow" speed="29.94" pos="1209.10" lane="0_0" slope="0.00"/>
    </timestep>
    <timestep time="46.00">
        <vehicle id="first" x="1384.62" y="0.00" angle="90.00" type="tFirst" speed="29.99" pos="1384.62" lane="0_0" slope="0.00"/>
        <vehicle id="flow.0" x="1339.93" y="0.00" angle="90.00" type="tFlow" speed="30.50" pos="1339.93" lane="0_0" slope="0.00"/>
        <vehicle id="flow.1" x="1288.06" y="0.00" angle="90.00" type="tFlow" speed="30.00" pos="1288.06" lane="0_0" slope="0.00"/>
        <vehicle id="flow.2" x="1239.33" y="0.00" angle="90.00" type="tFlow" speed="30.23" pos="1239.33" lane="0_0" slope="0.00"/>
    </timestep>
    <timestep time="47.00">
        <vehicle id="first" x="1414.61" y="0.00" angle="90.00" type="tFirst" speed="29.99" pos="1414.61" lane="0_0" slope="0.00"/>
        <vehicle id="flow.0" x="1370.47" y="0.00" angle="90.00" type="tFlow" speed="30.53" pos="1370.47" lane="0_0" slope="0.00"/>
        <vehicle id="flow.1" x="1318.22" y="0.00" angle="90.00" type="tFlow" speed="30.16" pos="1318.22" lane="0_0" slope="0.00"/>
        <vehicle id="flow.2" x="1269.83" y="0.00" angle="90.00" type="tFlow" speed="30.50" pos="1269.83" lane="0_0" slope="0.00"/>
    </timestep>
    <timestep time="48.00">
        <vehicle id="first" x="1444.59" y="0.00" angle="90.00" type="tFirst" speed="29.99" pos="1444.59" lane="0_0" slope="0.00"/>
        <vehicle id="flow.0" x="1400.93" y="0.00" angle="90.00" type="tFlow" speed="30.46" pos="1400.93" lane="0_0" slope="0.00"/>
        <vehicle id="flow.1" x="1348.50" y="0.00" angle="90.00" type="tFlow" speed="30.28" pos="1348.50" lane="0_0" slope="0.00"/>
        <vehicle id="flow.2" x="1300.48" y="0.00" angle="90.00" type="tFlow" speed="30.66" pos="1300.48" lane="0_0" slope="0.00"/>
    </timestep>
    <timestep time="49.00">
        <vehicle id="first" x="1474.58" y="0.00" angle="90.00" type="tFirst" speed="29.99" pos="1474.58" lane="0_0" slope="0.00"/>
        <vehicle id="flow.0" x="1431.36" y="0.00" angle="90.00" type="tFlow" speed="30.43" pos="1431.36" lane="0_0" slope="0.00"/>
        <vehicle id="flow.1" x="1378.89" y="0.00" angle="90.00" type="tFlow" speed="30.39" pos="1378.89" lane="0_0" slope="0.00"/>
        <vehicle id="flow.2" x="1331.30" y="0.00" angle="90.00" type="tFlow" speed="30.82" pos="1331.30" lane="0_0" slope="0.00"/>
    </timestep>
    <timestep time="50.00">
        <vehicle id="first" x="1504.56" y="0.00" angle="90.00" type="tFirst" speed="29.99" pos="1504.56" lane="0_0" slope="0.00"/>
        <vehicle id="flow.0" x="1461.66" y="0.00" angle="90.00" type="tFlow" speed="30.30" pos="1461.66" lane="0_0" slope="0.00"/>
        <vehicle id="flow.1" x="1409.36" y="0.00" angle="90.00" type="tFlow" speed="30.47" pos="1409.36" lane="0_0" slope="0.00"/>
        <vehicle id="flow.2" x="1362.17" y="0.00" angle="90.00" type="tFlow" speed="30.87" pos="1362.17" lane="0_0" slope="0.00"/>
    </timestep>
    <timestep time="51.00">
        <vehicle id="first" x="1534.55" y="0.00" angle="90.00" type="tFirst" speed="29.99" pos="1534.55" lane="0_0" slope="0.00"/>
        <vehicle id="flow.0" x="1491.88" y="0.00" angle="90.00" type="tFlow" speed="30.23" pos="1491.88" lane="0_0" slope="0.00"/>
        <vehicle id="flow.1" x="1439.91" y="0.00" angle="90.00" type="tFlow" speed="30.55" pos="1439.91" lane="0_0" slope="0.00"/>
        <vehicle id="flow.2" x="1393.11" y="0.00" angle="90.00" type="tFlow" speed="30.94" pos="1393.11" lane="0_0" slope="0.00"/>
    </timestep>
    <timestep time="52.00">
        <vehicle id="first" x="1564.53" y="0.00" angle="90.00" type="tFirst" speed="29.99" pos="1564.53" lane="0_0" slope="0.00"/>
        <vehicle id="flow.0" x="1522.07" y="0.00" angle="90.00" type="tFlow" speed="30.19" pos="1522.07" lane="0_0" slope="0.00"/>
        <vehicle id="flow.1" x="1470.52" y="0.00" angle="90.00" type="tFlow" speed="30.61" pos="1470.52" lane="0_0" slope="0.00"/>
        <vehicle id="flow.2" x="1423.98" y="0.00" angle="90.00" type="tFlow" speed="30.87" pos="1423.98" lane="0_0" slope="0.00"/>
    </timestep>
    <timestep time="53.00">
        <vehicle id="first" x="1594.52" y="0.00" angle="90.00" type="tFirst" speed="29.99" pos="1594.52" lane="0_0" slope="0.00"/>
        <vehicle id="flow.0" x="1552.10" y="0.00" angle="90.00" type="tFlow" speed="30.03" pos="1552.10" lane="0_0" slope="0.00"/>
        <vehicle id="flow.1" x="1501.18" y="0.00" angle="90.00" type="tFlow" speed="30.66" pos="1501.18" lane="0_0" slope="0.00"/>