<?xml version="1.0" encoding="UTF-8"?>

<!-- generated on Wed Nov 27 13:55:14 2019 by Eclipse SUMO Version v1_3_1+1145-55f61f8
This data file and the accompanying materials
are made available under the terms of the Eclipse Public License v2.0
which accompanies this distribution, and is available at
http://www.eclipse.org/legal/epl-v20.html
SPDX-License-Identifier: EPL-2.0
<configuration xmlns:xsi="http://www.w3.org/2001/XMLSchema-instance" xsi:noNamespaceSchemaLocation="http://sumo.dlr.de/xsd/sumoConfiguration.xsd">

    <input>
        <net-file value="net.net.xml"/>
        <route-files value="input_routes.rou.xml"/>
    </input>

    <output>
        <write-license value="true"/>
        <fcd-output value="fcd.xml"/>
    </output>

    <processing>
        <collision.mingap-factor value="0"/>
        <default.carfollowmodel value="IDM"/>
        <default.speeddev value="0"/>
    </processing>

    <report>
        <xml-validation value="never"/>
        <no-step-log value="true"/>
    </report>

    <driver_state_device>
        <device.driverstate.probability value="1"/>
        <device.driverstate.initialAwareness value="0.5"/>
    </driver_state_device>

</configuration>
-->

<fcd-export xmlns:xsi="http://www.w3.org/2001/XMLSchema-instance" xsi:noNamespaceSchemaLocation="http://sumo.dlr.de/xsd/fcd_file.xsd">
    <timestep time="0.00">
        <vehicle id="first" x="5.10" y="0.00" angle="90.00" type="tFirst" speed="30.00" pos="5.10" lane="0_0" slope="0.00"/>
    </timestep>
    <timestep time="1.00">
        <vehicle id="first" x="35.10" y="0.00" angle="90.00" type="tFirst" speed="30.00" pos="35.10" lane="0_0" slope="0.00"/>
    </timestep>
    <timestep time="2.00">
        <vehicle id="first" x="65.09" y="0.00" angle="90.00" type="tFirst" speed="29.99" pos="65.09" lane="0_0" slope="0.00"/>
        <vehicle id="flow.0" x="5.10" y="0.00" angle="90.00" type="tFlow" speed="32.97" pos="5.10" lane="0_0" slope="0.00"/>
    </timestep>
    <timestep time="3.00">
        <vehicle id="first" x="95.08" y="0.00" angle="90.00" type="tFirst" speed="29.99" pos="95.08" lane="0_0" slope="0.00"/>
        <vehicle id="flow.0" x="36.86" y="0.00" angle="90.00" type="tFlow" speed="31.76" pos="36.86" lane="0_0" slope="0.00"/>
    </timestep>
    <timestep time="4.00">
        <vehicle id="first" x="125.08" y="0.00" angle="90.00" type="tFirst" speed="29.99" pos="125.08" lane="0_0" slope="0.00"/>
        <vehicle id="flow.0" x="67.49" y="0.00" angle="90.00" type="tFlow" speed="30.64" pos="67.49" lane="0_0" slope="0.00"/>
        <vehicle id="flow.1" x="5.10" y="0.00" angle="90.00" type="tFlow" speed="33.41" pos="5.10" lane="0_0" slope="0.00"/>
    </timestep>
    <timestep time="5.00">
        <vehicle id="first" x="155.07" y="0.00" angle="90.00" type="tFirst" speed="29.99" pos="155.07" lane="0_0" slope="0.00"/>
        <vehicle id="flow.0" x="97.33" y="0.00" angle="90.00" type="tFlow" speed="29.83" pos="97.33" lane="0_0" slope="0.00"/>
        <vehicle id="flow.1" x="37.61" y="0.00" angle="90.00" type="tFlow" speed="32.51" pos="37.61" lane="0_0" slope="0.00"/>
    </timestep>
    <timestep time="6.00">
        <vehicle id="first" x="185.06" y="0.00" angle="90.00" type="tFirst" speed="29.99" pos="185.06" lane="0_0" slope="0.00"/>
        <vehicle id="flow.0" x="127.49" y="0.00" angle="90.00" type="tFlow" speed="30.16" pos="127.49" lane="0_0" slope="0.00"/>
        <vehicle id="flow.1" x="69.32" y="0.00" angle="90.00" type="tFlow" speed="31.71" pos="69.32" lane="0_0" slope="0.00"/>
        <vehicle id="flow.2" x="5.10" y="0.00" angle="90.00" type="tFlow" speed="33.91" pos="5.10" lane="0_0" slope="0.00"/>
    </timestep>
    <timestep time="7.00">
        <vehicle id="first" x="215.05" y="0.00" angle="90.00" type="tFirst" speed="29.99" pos="215.05" lane="0_0" slope="0.00"/>
        <vehicle id="flow.0" x="157.92" y="0.00" angle="90.00" type="tFlow" speed="30.43" pos="157.92" lane="0_0" slope="0.00"/>
        <vehicle id="flow.1" x="100.28" y="0.00" angle="90.00" type="tFlow" speed="30.96" pos="100.28" lane="0_0" slope="0.00"/>
        <vehicle id="flow.2" x="38.17" y="0.00" angle="90.00" type="tFlow" speed="33.07" pos="38.17" lane="0_0" slope="0.00"/>
    </timestep>
    <timestep time="8.00">
        <vehicle id="first" x="245.04" y="0.00" angle="90.00" type="tFirst" speed="29.99" pos="245.04" lane="0_0" slope="0.00"/>
        <vehicle id="flow.0" x="188.57" y="0.00" angle="90.00" type="tFlow" speed="30.65" pos="188.57" lane="0_0" slope="0.00"/>
        <vehicle id="flow.1" x="130.71" y="0.00" angle="90.00" type="tFlow" speed="30.43" pos="130.71" lane="0_0" slope="0.00"/>
        <vehicle id="flow.2" x="70.52" y="0.00" angle="90.00" type="tFlow" speed="32.35" pos="70.52" lane="0_0" slope="0.00"/>
    </timestep>
    <timestep time="9.00">
        <vehicle id="first" x="275.04" y="0.00" angle="90.00" type="tFirst" speed="29.99" pos="275.04" lane="0_0" slope="0.00"/>
        <vehicle id="flow.0" x="219.40" y="0.00" angle="90.00" type="tFlow" speed="30.83" pos="219.40" lane="0_0" slope="0.00"/>
        <vehicle id="flow.1" x="161.41" y="0.00" angle="90.00" type="tFlow" speed="30.70" pos="161.41" lane="0_0" slope="0.00"/>
        <vehicle id="flow.2" x="102.24" y="0.00" angle="90.00" type="tFlow" speed="31.71" pos="102.24" lane="0_0" slope="0.00"/>
    </timestep>
    <timestep time="10.00">
        <vehicle id="first" x="305.03" y="0.00" angle="90.00" type="tFirst" speed="29.99" pos="305.03" lane="0_0" slope="0.00"/>
        <vehicle id="flow.0" x="250.38" y="0.00" angle="90.00" type="tFlow" speed="30.98" pos="250.38" lane="0_0" slope="0.00"/>
        <vehicle id="flow.1" x="192.33" y="0.00" angle="90.00" type="tFlow" speed="30.92" pos="192.33" lane="0_0" slope="0.00"/>
        <vehicle id="flow.2" x="133.36" y="0.00" angle="90.00" type="tFlow" speed="31.12" pos="133.36" lane="0_0" slope="0.00"/>
    </timestep>
    <timestep time="11.00">
        <vehicle id="first" x="335.02" y="0.00" angle="90.00" type="tFirst" speed="29.99" pos="335.02" lane="0_0" slope="0.00"/>
        <vehicle id="flow.0" x="281.47" y="0.00" angle="90.00" type="tFlow" speed="31.09" pos="281.47" lane="0_0" slope="0.00"/>
        <vehicle id="flow.1" x="223.44" y="0.00" angle="90.00" type="tFlow" speed="31.12" pos="223.44" lane="0_0" slope="0.00"/>
        <vehicle id="flow.2" x="164.09" y="0.00" angle="90.00" type="tFlow" speed="30.74" pos="164.09" lane="0_0" slope="0.00"/>
    </timestep>
    <timestep time="12.00">
        <vehicle id="first" x="365.01" y="0.00" angle="90.00" type="tFirst" speed="29.99" pos="365.01" lane="0_0" slope="0.00"/>
        <vehicle id="flow.0" x="312.55" y="0.00" angle="90.00" type="tFlow" speed="31.08" pos="312.55" lane="0_0" slope="0.00"/>
        <vehicle id="flow.1" x="254.73" y="0.00" angle="90.00" type="tFlow" speed="31.28" pos="254.73" lane="0_0" slope="0.00"/>
        <vehicle id="flow.2" x="195.23" y="0.00" angle="90.00" type="tFlow" speed="31.13" pos="195.23" lane="0_0" slope="0.00"/>
    </timestep>
    <timestep time="13.00">
        <vehicle id="first" x="395.00" y="0.00" angle="90.00" type="tFirst" speed="29.99" pos="395.00" lane="0_0" slope="0.00"/>
        <vehicle id="flow.0" x="343.62" y="0.00" angle="90.00" type="tFlow" speed="31.07" pos="343.62" lane="0_0" slope="0.00"/>
        <vehicle id="flow.1" x="286.15" y="0.00" angle="90.00" type="tFlow" speed="31.43" pos="286.15" lane="0_0" slope="0.00"/>
        <vehicle id="flow.2" x="226.69" y="0.00" angle="90.00" type="tFlow" speed="31.47" pos="226.69" lane="0_0" slope="0.00"/>
    </timestep>
    <timestep time="14.00">
        <vehicle id="first" x="424.99" y="0.00" angle="90.00" type="tFirst" speed="29.99" pos="424.99" lane="0_0" slope="0.00"/>
        <vehicle id="flow.0" x="374.58" y="0.00" angle="90.00" type="tFlow" speed="30.96" pos="374.58" lane="0_0" slope="0.00"/>
        <vehicle id="flow.1" x="317.61" y="0.00" angle="90.00" type="tFlow" speed="31.46" pos="317.61" lane="0_0" slope="0.00"/>
        <vehicle id="flow.2" x="258.44" y="0.00" angle="90.00" type="tFlow" speed="31.75" pos="258.44" lane="0_0" slope="0.00"/>
    </timestep>
    <timestep time="15.00">
        <vehicle id="first" x="454.98" y="0.00" angle="90.00" type="tFirst" speed="29.99" pos="454.98" lane="0_0" slope="0.00"/>
        <vehicle id="flow.0" x="405.45" y="0.00" angle="90.00" type="tFlow" speed="30.87" pos="405.45" lane="0_0" slope="0.00"/>
        <vehicle id="flow.1" x="349.11" y="0.00" angle="90.00" type="tFlow" speed="31.50" pos="349.11" lane="0_0" slope="0.00"/>
        <vehicle id="flow.2" x="290.44" y="0.00" angle="90.00" type="tFlow" speed="31.99" pos="290.44" lane="0_0" slope="0.00"/>
    </timestep>
    <timestep time="16.00">
        <vehicle id="first" x="484.97" y="0.00" angle="90.00" type="tFirst" speed="29.99" pos="484.97" lane="0_0" slope="0.00"/>
        <vehicle id="flow.0" x="436.26" y="0.00" angle="90.00" type="tFlow" speed="30.81" pos="436.26" lane="0_0" slope="0.00"/>
        <vehicle id="flow.1" x="380.64" y="0.00" angle="90.00" type="tFlow" speed="31.54" pos="380.64" lane="0_0" slope="0.00"/>
        <vehicle id="flow.2" x="322.58" y="0.00" angle="90.00" type="tFlow" speed="32.14" pos="322.58" lane="0_0" slope="0.00"/>
    </timestep>
    <timestep time="17.00">
        <vehicle id="first" x="514.96" y="0.00" angle="90.00" type="tFirst" speed="29.99" pos="514.96" lane="0_0" slope="0.00"/>
        <vehicle id="flow.0" x="466.92" y="0.00" angle="90.00" type="tFlow" speed="30.66" pos="466.92" lane="0_0" slope="0.00"/>
        <vehicle id="flow.1" x="412.23" y="0.00" angle="90.00" type="tFlow" speed="31.58" pos="412.23" lane="0_0" slope="0.00"/>
        <vehicle id="flow.2" x="354.86" y="0.00" angle="90.00" type="tFlow" speed="32.28" pos="354.86" lane="0_0" slope="0.00"/>
    </timestep>
    <timestep time="18.00">
        <vehicle id="first" x="544.95" y="0.00" angle="90.00" type="tFirst" speed="29.99" pos="544.95" lane="0_0" slope="0.00"/>
        <vehicle id="flow.0" x="497.47" y="0.00" angle="90.00" type="tFlow" speed="30.55" pos="497.47" lane="0_0" slope="0.00"/>
        <vehicle id="flow.1" x="443.74" y="0.00" angle="90.00" type="tFlow" speed="31.51" pos="443.74" lane="0_0" slope="0.00"/>
        <vehicle id="flow.2" x="387.17" y="0.00" angle="90.00" type="tFlow" speed="32.31" pos="387.17" lane="0_0" slope="0.00"/>
    </timestep>
    <timestep time="19.00">
        <vehicle id="first" x="574.94" y="0.00" angle="90.00" type="tFirst" speed="29.99" pos="574.94" lane="0_0" slope="0.00"/>
        <vehicle id="flow.0" x="527.94" y="0.00" angle="90.00" type="tFlow" speed="30.47" pos="527.94" lane="0_0" slope="0.00"/>
        <vehicle id="flow.1" x="475.20" y="0.00" angle="90.00" type="tFlow" speed="31.46" pos="475.20" lane="0_0" slope="0.00"/>
        <vehicle id="flow.2" x="419.52" y="0.00" angle="90.00" type="tFlow" speed="32.36" pos="419.52" lane="0_0" slope="0.00"/>
    </timestep>
    <timestep time="20.00">
        <vehicle id="first" x="604.93" y="0.00" angle="90.00" type="tFirst" speed="29.99" pos="604.93" lane="0_0" slope="0.00"/>
        <vehicle id="flow.0" x="558.35" y="0.00" angle="90.00" type="tFlow" speed="30.41" pos="558.35" lane="0_0" slope="0.00"/>
        <vehicle id="flow.1" x="506.54" y="0.00" angle="90.00" type="tFlow" speed="31.35" pos="506.54" lane="0_0" slope="0.00"/>
        <vehicle id="flow.2" x="451.83" y="0.00" angle="90.00" type="tFlow" speed="32.31" pos="451.83" lane="0_0" slope="0.00"/>
    </timestep>
    <timestep time="21.00">
        <vehicle id="first" x="634.92" y="0.00" angle="90.00" type="tFirst" speed="29.99" pos="634.92" lane="0_0" slope="0.00"/>
        <vehicle id="flow.0" x="588.71" y="0.00" angle="90.00" type="tFlow" speed="30.36" pos="588.71" lane="0_0" slope="0.00"/>
        <vehicle id="flow.1" x="537.81" y="0.00" angle="90.00" type="tFlow" speed="31.27" pos="537.81" lane="0_0" slope="0.00"/>
        <vehicle id="flow.2" x="484.12" y="0.00" angle="90.00" type="tFlow" speed="32.29" pos="484.12" lane="0_0" slope="0.00"/>
    </timestep>
    <timestep time="22.00">
        <vehicle id="first" x="664.91" y="0.00" angle="90.00" type="tFirst" speed="29.99" pos="664.91" lane="0_0" slope="0.00"/>
        <vehicle id="flow.0" x="619.04" y="0.00" angle="90.00" type="tFlow" speed="30.33" pos="619.04" lane="0_0" slope="0.00"/>
        <vehicle id="flow.1" x="568.94" y="0.00" angle="90.00" type="tFlow" speed="31.13" pos="568.94" lane="0_0" slope="0.00"/>
        <vehicle id="flow.2" x="516.42" y="0.00" angle="90.00" type="tFlow" speed="32.30" pos="516.42" lane="0_0" slope="0.00"/>
    </timestep>
    <timestep time="23.00">
        <vehicle id="first" x="694.90" y="0.00" angle="90.00" type="tFirst" speed="29.99" pos="694.90" lane="0_0" slope="0.00"/>
        <vehicle id="flow.0" x="649.21" y="0.00" angle="90.00" type="tFlow" speed="30.17" pos="649.21" lane="0_0" slope="0.00"/>
        <vehicle id="flow.1" x="599.88" y="0.00" angle="90.00" type="tFlow" speed="30.93" pos="599.88" lane="0_0" slope="0.00"/>
        <vehicle id="flow.2" x="548.74" y="0.00" angle="90.00" type="tFlow" speed="32.32" pos="548.74" lane="0_0" slope="0.00"/>
    </timestep>
    <timestep time="24.00">
        <vehicle id="first" x="724.89" y="0.00" angle="90.00" type="tFirst" speed="29.99" pos="724.89" lane="0_0" slope="0.00"/>
        <vehicle id="flow.0" x="679.27" y="0.00" angle="90.00" type="tFlow" speed="30.05" pos="679.27" lane="0_0" slope="0.00"/>
        <vehicle id="flow.1" x="630.67" y="0.00" angle="90.00" type="tFlow" speed="30.80" pos="630.67" lane="0_0" slope="0.00"/>
        <vehicle id="flow.2" x="580.95" y="0.00" angle="90.00" type="tFlow" speed="32.21" pos="580.95" lane="0_0" slope="0.00"/>
    </timestep>
    <timestep time="25.00">
        <vehicle id="first" x="754.88" y="0.00" angle="90.00" type="tFirst" speed="29.99" pos="754.88" lane="0_0" slope="0.00"/>
        <vehicle id="flow.0" x="709.23" y="0.00" angle="90.00" type="tFlow" speed="29.96" pos="709.23" lane="0_0" slope="0.00"/>
        <vehicle id="flow.1" x="661.38" y="0.00" angle="90.00" type="tFlow" speed="30.71" pos="661.38" lane="0_0" slope="0.00"/>
        <vehicle id="flow.2" x="612.97" y="0.00" angle="90.00" type="tFlow" speed="32.03" pos="612.97" lane="0_0" slope="0.00"/>
    </timestep>
    <timestep time="26.00">
        <vehicle id="first" x="784.86" y="0.00" angle="90.00" type="tFirst" speed="29.99" pos="784.86" lane="0_0" slope="0.00"/>
        <vehicle id="flow.0" x="739.12" y="0.00" angle="90.00" type="tFlow" speed="29.89" pos="739.12" lane="0_0" slope="0.00"/>
        <vehicle id="flow.1" x="692.03" y="0.00" angle="90.00" type="tFlow" speed="30.65" pos="692.03" lane="0_0" slope="0.00"/>
        <vehicle id="flow.2" x="644.88" y="0.00" angle="90.00" type="tFlow" speed="31.91" pos="644.88" lane="0_0" slope="0.00"/>
    </timestep>
    <timestep time="27.00">
        <vehicle id="first" x="814.85" y="0.00" angle="90.00" type="tFirst" speed="29.99" pos="814.85" lane="0_0" slope="0.00"/>
        <vehicle id="flow.0" x="768.96" y="0.00" angle="90.00" type="tFlow" speed="29.84" pos="768.96" lane="0_0" slope="0.00"/>
        <vehicle id="flow.1" x="722.51" y="0.00" angle="90.00" type="tFlow" speed="30.48" pos="722.51" lane="0_0" slope="0.00"/>
        <vehicle id="flow.2" x="676.64" y="0.00" angle="90.00" type="tFlow" speed="31.75" pos="676.64" lane="0_0" slope="0.00"/>
    </timestep>
    <timestep time="28.00">
        <vehicle id="first" x="844.84" y="0.00" angle="90.00" type="tFirst" speed="29.99" pos="844.84" lane="0_0" slope="0.00"/>
        <vehicle id="flow.0" x="798.77" y="0.00" angle="90.00" type="tFlow" speed="29.80" pos="798.77" lane="0_0" slope="0.00"/>
        <vehicle id="flow.1" x="752.87" y="0.00" angle="90.00" type="tFlow" speed="30.36" pos="752.87" lane="0_0" slope="0.00"/>
        <vehicle id="flow.2" x="708.29" y="0.00" angle="90.00" type="tFlow" speed="31.65" pos="708.29" lane="0_0" slope="0.00"/>
    </timestep>
    <timestep time="29.00">
        <vehicle id="first" x="874.83" y="0.00" angle="90.00" type="tFirst" speed="29.99" pos="874.83" lane="0_0" slope="0.00"/>
        <vehicle id="flow.0" x="828.55" y="0.00" angle="90.00" type="tFlow" speed="29.78" pos="828.55" lane="0_0" slope="0.00"/>
        <vehicle id="flow.1" x="783.02" y="0.00" angle="90.00" type="tFlow" speed="30.15" pos="783.02" lane="0_0" slope="0.00"/>
        <vehicle id="flow.2" x="739.73" y="0.00" angle="90.00" type="tFlow" speed="31.44" pos="739.73" lane="0_0" slope="0.00"/>
    </timestep>
    <timestep time="30.00">
        <vehicle id="first" x="904.82" y="0.00" angle="90.00" type="tFirst" speed="29.99" pos="904.82" lane="0_0" slope="0.00"/>
        <vehicle id="flow.0" x="858.30" y="0.00" angle="90.00" type="tFlow" speed="29.76" pos="858.30" lane="0_0" slope="0.00"/>
        <vehicle id="flow.1" x="813.02" y="0.00" angle="90.00" type="tFlow" speed="30.00" pos="813.02" lane="0_0" slope="0.00"/>
        <vehicle id="flow.2" x="771.03" y="0.00" angle="90.00" type="tFlow" speed="31.30" pos="771.03" lane="0_0" slope="0.00"/>
    </timestep>
    <timestep time="31.00">
        <vehicle id="first" x="934.81" y="0.00" angle="90.00" type="tFirst" speed="29.99" pos="934.81" lane="0_0" slope="0.00"/>
        <vehicle id="flow.0" x="888.05" y="0.00" angle="90.00" type="tFlow" speed="29.75" pos="888.05" lane="0_0" slope="0.00"/>
        <vehicle id="flow.1" x="842.93" y="0.00" angle="90.00" type="tFlow" speed="29.91" pos="842.93" lane="0_0" slope="0.00"/>
        <vehicle id="flow.2" x="802.04" y="0.00" angle="90.00" type="tFlow" speed="31.00" pos="802.04" lane="0_0" slope="0.00"/>
    </timestep>
    <timestep time="32.00">
        <vehicle id="first" x="964.80" y="0.00" angle="90.00" type="tFirst" speed="29.99" pos="964.80" lane="0_0" slope="0.00"/>
        <vehicle id="flow.0" x="917.80" y="0.00" angle="90.00" type="tFlow" speed="29.74" pos="917.80" lane="0_0" slope="0.00"/>
        <vehicle id="flow.1" x="872.60" y="0.00" angle="90.00" type="tFlow" speed="29.67" pos="872.60" lane="0_0" slope="0.00"/>
        <vehicle id="flow.2" x="832.72" y="0.00" angle="90.00" type="tFlow" speed="30.68" pos="832.72" lane="0_0" slope="0.00"/>
    </timestep>
    <timestep time="33.00">
        <vehicle id="first" x="994.79" y="0.00" angle="90.00" type="tFirst" speed="29.99" pos="994.79" lane="0_0" slope="0.00"/>
        <vehicle id="flow.0" x="947.54" y="0.00" angle="90.00" type="tFlow" speed="29.74" pos="947.54" lane="0_0" slope="0.00"/>
        <vehicle id="flow.1" x="902.10" y="0.00" angle="90.00" type="tFlow" speed="29.51" pos="902.10" lane="0_0" slope="0.00"/>
        <vehicle id="flow.2" x="863.05" y="0.00" angle="90.00" type="tFlow" speed="30.33" pos="863.05" lane="0_0" slope="0.00"/>
    </timestep>
    <timestep time="34.00">
        <vehicle id="first" x="1024.78" y="0.00" angle="90.00" type="tFirst" speed="29.99" pos="1024.78" lane="0_0" slope="0.00"/>
        <vehicle id="flow.0" x="977.29" y="0.00" angle="90.00" type="tFlow" speed="29.75" pos="977.29" lane="0_0" slope="0.00"/>
        <vehicle id="flow.1" x="931.50" y="0.00" angle="90.00" type="tFlow" speed="29.40" pos="931.50" lane="0_0" slope="0.00"/>
        <vehicle id="flow.2" x="893.15" y="0.00" angle="90.00" type="tFlow" speed="30.10" pos="893.15" lane="0_0" slope="0.00"/>
    </timestep>
    <timestep time="35.00">
        <vehicle id="first" x="1054.77" y="0.00" angle="90.00" type="tFirst" speed="29.99" pos="1054.77" lane="0_0" slope="0.00"/>
        <vehicle id="flow.0" x="1007.04" y="0.00" angle="90.00" type="tFlow" speed="29.75" pos="1007.04" lane="0_0" slope="0.00"/>
        <vehicle id="flow.1" x="960.71" y="0.00" angle="90.00" type="tFlow" speed="29.21" pos="960.71" lane="0_0" slope="0.00"/>
        <vehicle id="flow.2" x="922.90" y="0.00" angle="90.00" type="tFlow" speed="29.75" pos="922.90" lane="0_0" slope="0.00"/>
    </timestep>
    <timestep time="36.00">
        <vehicle id="first" x="1084.76" y="0.00" angle="90.00" type="tFirst" speed="29.99" pos="1084.76" lane="0_0" slope="0.00"/>
        <vehicle id="flow.0" x="1036.80" y="0.00" angle="90.00" type="tFlow" speed="29.76" pos="1036.80" lane="0_0" slope="0.00"/>
        <vehicle id="flow.1" x="989.79" y="0.00" angle="90.00" type="tFlow" speed="29.08" pos="989.79" lane="0_0" slope="0.00"/>
        <vehicle id="flow.2" x="952.31" y="0.00" angle="90.00" type="tFlow" speed="29.41" pos="952.31" lane="0_0" slope="0.00"/>
    </timestep>
    <timestep time="37.00">
        <vehicle id="first" x="1114.74" y="0.00" angle="90.00" type="tFirst" speed="29.99" pos="1114.74" lane="0_0" slope="0.00"/>
        <vehicle id="flow.0" x="1066.58" y="0.00" angle="90.00" type="tFlow" speed="29.77" pos="1066.58" lane="0_0" slope="0.00"/>
        <vehicle id="flow.1" x="1018.80" y="0.00" angle="90.00" type="tFlow" speed="29.00" pos="1018.80" lane="0_0" slope="0.00"/>
        <vehicle id="flow.2" x="981.49" y="0.00" angle="90.00" type="tFlow" speed="29.18" pos="981.49" lane="0_0" slope="0.00"/>
    </timestep>
    <timestep time="38.00">
        <vehicle id="first" x="1144.73" y="0.00" angle="90.00" type="tFirst" speed="29.99" pos="1144.73" lane="0_0" slope="0.00"/>
        <vehicle id="flow.0" x="1096.36" y="0.00" angle="90.00" type="tFlow" speed="29.79" pos="1096.36" lane="0_0" slope="0.00"/>
        <vehicle id="flow.1" x="1047.76" y="0.00" angle="90.00" type="tFlow" speed="28.97" pos="1047.76" lane="0_0" slope="0.00"/>
        <vehicle id="flow.2" x="1010.54" y="0.00" angle="90.00" type="tFlow" speed="29.05" pos="1010.54" lane="0_0" slope="0.00"/>
    </timestep>
    <timestep time="39.00">
        <vehicle id="first" x="1174.72" y="0.00" angle="90.00" type="tFirst" speed="29.99" pos="1174.72" lane="0_0" slope="0.00"/>
        <vehicle id="flow.0" x="1126.16" y="0.00" angle="90.00" type="tFlow" speed="29.80" pos="1126.16" lane="0_0" slope="0.00"/>
        <vehicle id="flow.1" x="1076.72" y="0.00" angle="90.00" type="tFlow" speed="28.96" pos="1076.72" lane="0_0" slope="0.00"/>
        <vehicle id="flow.2" x="1039.53" y="0.00" angle="90.00" type="tFlow" speed="28.99" pos="1039.53" lane="0_0" slope="0.00"/>
    </timestep>
    <timestep time="40.00">
        <vehicle id="first" x="1204.71" y="0.00" angle="90.00" type="tFirst" speed="29.99" pos="1204.71" lane="0_0" slope="0.00"/>
        <vehicle id="flow.0" x="1155.97" y="0.00" angle="90.00" type="tFlow" speed="29.81" pos="1155.97" lane="0_0" slope="0.00"/>
        <vehicle id="flow.1" x="1105.70" y="0.00" angle="90.00" type="tFlow" speed="28.98" pos="1105.70" lane="0_0" slope="0.00"/>
        <vehicle id="flow.2" x="1068.34" y="0.00" angle="90.00" type="tFlow" speed="28.80" pos="1068.34" lane="0_0" slope="0.00"/>
    </timestep>
    <timestep time="41.00">
        <vehicle id="first" x="1234.69" y="0.00" angle="90.00" type="tFirst" speed="29.99" pos="1234.69" lane="0_0" slope="0.00"/>
        <vehicle id="flow.0" x="1185.80" y="0.00" angle="90.00" type="tFlow" speed="29.83" pos="1185.80" lane="0_0" slope="0.00"/>
        <vehicle id="flow.1" x="1134.71" y="0.00" angle="90.00" type="tFlow" speed="29.01" pos="1134.71" lane="0_0" slope="0.00"/>
        <vehicle id="flow.2" x="1097.04" y="0.00" angle="90.00" type="tFlow" speed="28.70" pos="1097.04" lane="0_0" slope="0.00"/>
    </timestep>
    <timestep time="42.00">
        <vehicle id="first" x="1264.68" y="0.00" angle="90.00" type="tFirst" speed="29.99" pos="1264.68" lane="0_0" slope="0.00"/>
        <vehicle id="flow.0" x="1215.64" y="0.00" angle="90.00" type="tFlow" speed="29.84" pos="1215.64" lane="0_0" slope="0.00"/>
        <vehicle id="flow.1" x="1163.78" y="0.00" angle="90.00" type="tFlow" speed="29.07" pos="1163.78" lane="0_0" slope="0.00"/>
        <vehicle id="flow.2" x="1125.71" y="0.00" angle="90.00" type="tFlow" speed="28.67" pos="1125.71" lane="0_0" slope="0.00"/>
    </timestep>
    <timestep time="43.00">
        <vehicle id="first" x="1294.67" y="0.00" angle="90.00" type="tFirst" speed="29.99" pos="1294.67" lane="0_0" slope="0.00"/>
        <vehicle id="flow.0" x="1245.60" y="0.00" angle="90.00" type="tFlow" speed="29.96" pos="1245.60" lane="0_0" slope="0.00"/>
        <vehicle id="flow.1" x="1192.91" y="0.00" angle="90.00" type="tFlow" speed="29.13" pos="1192.91" lane="0_0" slope="0.00"/>
        <vehicle id="flow.2" x="1154.40" y="0.00" angle="90.00" type="tFlow" speed="28.69" pos="1154.40" lane="0_0" slope="0.00"/>
    </timestep>
    <timestep time="44.00">
        <vehicle id="first" x="1324.65" y="0.00" angle="90.00" type="tFirst" speed="29.99" pos="1324.65" lane="0_0" slope="0.00"/>
        <vehicle id="flow.0" x="1275.66" y="0.00" angle="90.00" type="tFlow" speed="30.06" pos="1275.66" lane="0_0" slope="0.00"/>
        <vehicle id="flow.1" x="1222.11" y="0.00" angle="90.00" type="tFlow" speed="29.20" pos="1222.11" lane="0_0" slope="0.00"/>
        <vehicle id="flow.2" x="1183.15" y="0.00" angle="90.00" type="tFlow" speed="28.75" pos="1183.15" lane="0_0" slope="0.00"/>
    </timestep>
    <timestep time="45.00">
        <vehicle id="first" x="1354.64" y="0.00" angle="90.00" type="tFirst" speed="29.99" pos="1354.64" lane="0_0" slope="0.00"/>
        <vehicle id="flow.0" x="1305.79" y="0.00" angle="90.00" type="tFlow" speed="30.14" pos="1305.79" lane="0_0" slope="0.00"/>
        <vehicle id="flow.1" x="1251.56" y="0.00" angle="90.00" type="tFlow" speed="29.45" pos="1251.56" lane="0_0" slope="0.00"/>
        <vehicle id="flow.2" x="1211.88" y="0.00" angle="90.00" type="tFlow" speed="28.73" pos="1211.88" lane="0_0" slope="0.00"/>
    </timestep>
    <timestep time="46.00">
        <vehicle id="first" x="1384.63" y="0.00" angle="90.00" type="tFirst" speed="29.99" pos="1384.63" lane="0_0" slope="0.00"/>
        <vehicle id="flow.0" x="1336.00" y="0.00" angle="90.00" type="tFlow" speed="30.20" pos="1336.00" lane="0_0" slope="0.00"/>
        <vehicle id="flow.1" x="1281.23" y="0.00" angle="90.00" type="tFlow" speed="29.67" pos="1281.23" lane="0_0" slope="0.00"/>
        <vehicle id="flow.2" x="1240.64" y="0.00" angle="90.00" type="tFlow" speed="28.76" pos="1240.64" lane="0_0" slope="0.00"/>
    </timestep>
    <timestep time="47.00">
        <vehicle id="first" x="1414.61" y="0.00" angle="90.00" type="tFirst" speed="29.99" pos="1414.61" lane="0_0" slope="0.00"/>
        <vehicle id="flow.0" x="1366.26" y="0.00" angle="90.00" type="tFlow" speed="30.26" pos="1366.26" lane="0_0" slope="0.00"/>
        <vehicle id="flow.1" x="1311.09" y="0.00" angle="90.00" type="tFlow" speed="29.86" pos="1311.09" lane="0_0" slope="0.00"/>
        <vehicle id="flow.2" x="1269.46" y="0.00" angle="90.00" type="tFlow" speed="28.82" pos="1269.46" lane="0_0" slope="0.00"/>
    </timestep>
    <timestep time="48.00">
        <vehicle id="first" x="1444.60" y="0.00" angle="90.00" type="tFirst" speed="29.99" pos="1444.60" lane="0_0" slope="0.00"/>
        <vehicle id="flow.0" x="1396.46" y="0.00" angle="90.00" type="tFlow" speed="30.20" pos="1396.46" lane="0_0" slope="0.00"/>
        <vehicle id="flow.1" x="1340.98" y="0.00" angle="90.00" type="tFlow" speed="29.89" pos="1340.98" lane="0_0" slope="0.00"/>
        <vehicle id="flow.2" x="1298.37" y="0.00" angle="90.00" type="tFlow" speed="28.92" pos="1298.37" lane="0_0" slope="0.00"/>
    </timestep>
    <timestep time="49.00">
        <vehicle id="first" x="1474.59" y="0.00" angle="90.00" type="tFirst" speed="29.99" pos="1474.59" lane="0_0" slope="0.00"/>
        <vehicle id="flow.0" x="1426.60" y="0.00" angle="90.00" type="tFlow" speed="30.15" pos="1426.60" lane="0_0" slope="0.00"/>
        <vehicle id="flow.1" x="1370.92" y="0.00" angle="90.00" type="tFlow" speed="29.94" pos="1370.92" lane="0_0" slope="0.00"/>
        <vehicle id="flow.2" x="1327.41" y="0.00" angle="90.00" type="tFlow" speed="29.03" pos="1327.41" lane="0_0" slope="0.00"/>
    </timestep>
    <timestep time="50.00">
        <vehicle id="first" x="1504.57" y="0.00" angle="90.00" type="tFirst" speed="29.99" pos="1504.57" lane="0_0" slope="0.00"/>
        <vehicle id="flow.0" x="1456.71" y="0.00" angle="90.00" type="tFlow" speed="30.11" pos="1456.71" lane="0_0" slope="0.00"/>
        <vehicle id="flow.1" x="1400.91" y="0.00" angle="90.00" type="tFlow" speed="29.99" pos="1400.91" lane="0_0" slope="0.00"/>
        <vehicle id="flow.2" x="1356.58" y="0.00" angle="90.00" type="tFlow" speed="29.17" pos="1356.58" lane="0_0" slope="0.00"/>
    </timestep>
    <timestep time="51.00">
        <vehicle id="first" x="1534.56" y="0.00" angle="90.00" type="tFirst" speed="29.99" pos="1534.56" lane="0_0" slope="0.00"/>
        <vehicle id="flow.0" x="1486.79" y="0.00" angle="90.00" type="tFlow" speed="30.08" pos="1486.79" lane="0_0" slope="0.00"/>
        <vehicle id="flow.1" x="1430.97" y="0.00" angle="90.00" type="tFlow" speed="30.05" pos="1430.97" lane="0_0" slope="0.00"/>
        <vehicle id="flow.2" x="1385.89" y="0.00" angle="90.00" type="tFlow" speed="29.32" pos="1385.89" lane="0_0" slope="0.00"/>
    </timestep>
    <timestep time="52.00">
        <vehicle id="first" x="1564.54" y="0.00" angle="90.00" type="tFirst" speed="29.99" pos="1564.54" lane="0_0" slope="0.00"/>
        <vehicle id="flow.0" x="1516.75" y="0.00" angle="90.00" type="tFlow" speed="29.96" pos="1516.75" lane="0_0" slope="0.00"/>
        <vehicle id="flow.1" x="1461.09" y="0.00" angle="90.00" type="tFlow" speed="30.12" pos="1461.09" lane="0_0" slope="0.00"/>
        <vehicle id="flow.2" x="1415.36" y="0.00" angle="90.00" type="tFlow" speed="29.47" pos="1415.36" lane="0_0" slope="0.00"/>
    </timestep>
    <timestep time="53.00">
        <vehicle id="first" x="1594.53" y="0.00" angle="90.00" type="tFirst" speed="29.99" pos="1594.53" lane="0_0" slope="0.00"/>
        <vehicle id="flow.0" x="1546.61" y="0.00" angle="90.00" type="tFlow" speed="29.86" pos="1546.61" lane="0_0" slope="0.00"/>
        <vehicle id="flow.1" x="1491.28" y="0.00" angle="90.00" type="tFlow" speed="30.19" pos="1491.28" lane="0_0" slope="0.00"/>