<?xml version="1.0" encoding="UTF-8"?>

<!-- generated on 2021-08-23 12:03:10 by Eclipse SUMO sumo Version v1_10_0+0129-6ada7b0
<configuration xmlns:xsi="http://www.w3.org/2001/XMLSchema-instance" xsi:noNamespaceSchemaLocation="http://sumo.dlr.de/xsd/sumoConfiguration.xsd">

    <input>
        <net-file value="input_net2.net.xml"/>
        <additional-files value="input_routes.rou.xml"/>
    </input>

    <output>
        <tripinfo-output value="tripinfo.xml"/>
    </output>

    <processing>
        <tls.all-off value="true"/>
        <pedestrian.model value="nonInteracting"/>
    </processing>

    <report>
        <no-step-log value="true"/>
    </report>

    <traci_server>
        <remote-port value="58933"/>
    </traci_server>

    <mesoscopic>
        <mesosim value="true"/>
        <meso-junction-control value="true"/>
    </mesoscopic>

</configuration>
-->

<tripinfos xmlns:xsi="http://www.w3.org/2001/XMLSchema-instance" xsi:noNamespaceSchemaLocation="http://sumo.dlr.de/xsd/tripinfo_file.xsd">
    <personinfo id="p0" depart="3.00" type="DEFAULT_PEDTYPE">
        <ride waitingTime="0.00" vehicle="v0" depart="3.00" arrival="16.00" arrivalPos="91.95" duration="13.00" routeLength="91.95" timeLoss="0.00"/>
    </personinfo>
    <tripinfo id="v0" depart="3.00" departLane="" departPos="0.00" departSpeed="14.72" departDelay="0.00" arrival="16.00" arrivalLane="" arrivalPos="91.95" arrivalSpeed="14.72" duration="13.00" routeLength="183.90" waitingTime="0.00" waitingCount="0" stopTime="0.00" timeLoss="0.00" rerouteNo="0" devices="tripinfo_v0 person_v0" vType="DEFAULT_VEHTYPE" speedFactor="1.06" vaporized=""/>
</tripinfos>
