<?xml version="1.0" encoding="UTF-8"?>

<!-- generated on 2022-08-28 19:20:28 by Eclipse SUMO sumo Version v1_14_1+0598-02ca306
<configuration xmlns:xsi="http://www.w3.org/2001/XMLSchema-instance" xsi:noNamespaceSchemaLocation="http://sumo.dlr.de/xsd/sumoConfiguration.xsd">

    <input>
        <net-file value="input_net2.net.xml"/>
        <additional-files value="input_routes.rou.xml"/>
    </input>

    <output>
        <tripinfo-output value="tripinfo.xml"/>
    </output>

    <processing>
        <tls.all-off value="true"/>
    </processing>

    <report>
        <no-step-log value="true"/>
    </report>

    <traci_server>
        <remote-port value="56684"/>
    </traci_server>

</configuration>
-->

<tripinfos xmlns:xsi="http://www.w3.org/2001/XMLSchema-instance" xsi:noNamespaceSchemaLocation="http://sumo.dlr.de/xsd/tripinfo_file.xsd">
    <personinfo id="p0" depart="3.00" type="DEFAULT_PEDTYPE" speedFactor="0.94">
        <ride waitingTime="0.00" vehicle="v0" depart="3.00" arrival="22.00" arrivalPos="91.95" duration="19.00" routeLength="194.90" timeLoss="5.38"/>
    </personinfo>
    <tripinfo id="v0" depart="3.00" departLane="SC_0" departPos="5.10" departSpeed="0.00" departDelay="0.00" arrival="22.00" arrivalLane="CN_0" arrivalPos="91.95" arrivalSpeed="14.42" duration="19.00" routeLength="194.90" waitingTime="0.00" waitingCount="0" stopTime="0.00" timeLoss="5.38" rerouteNo="0" devices="tripinfo_v0 person_v0" vType="DEFAULT_VEHTYPE" speedFactor="1.06" vaporized=""/>
</tripinfos>
