<?xml version="1.0" encoding="UTF-8"?>

<!-- generated on 2023-07-10 15:16:45 by Eclipse SUMO sumo Version v1_18_0+0208-8df1b2c
This data file and the accompanying materials
are made available under the terms of the Eclipse Public License v2.0
which accompanies this distribution, and is available at
http://www.eclipse.org/legal/epl-v20.html
This file may also be made available under the following Secondary
Licenses when the conditions for such availability set forth in the Eclipse
Public License 2.0 are satisfied: GNU General Public License, version 2
or later which is available at
https://www.gnu.org/licenses/old-licenses/gpl-2.0-standalone.html
SPDX-License-Identifier: EPL-2.0 OR GPL-2.0-or-later
<configuration xmlns:xsi="http://www.w3.org/2001/XMLSchema-instance" xsi:noNamespaceSchemaLocation="http://sumo.dlr.de/xsd/sumoConfiguration.xsd">

    <input>
        <net-file value="net.net.xml"/>
        <route-files value="input_routes.rou.xml"/>
    </input>

    <output>
        <write-license value="true"/>
        <tripinfo-output value="tripinfos.xml"/>
    </output>

    <processing>
        <lateral-resolution value="0.8"/>
        <default.speeddev value="0"/>
    </processing>

    <report>
        <xml-validation value="never"/>
        <duration-log.statistics value="true"/>
        <no-step-log value="true"/>
    </report>

</configuration>
-->

<tripinfos xmlns:xsi="http://www.w3.org/2001/XMLSchema-instance" xsi:noNamespaceSchemaLocation="http://sumo.dlr.de/xsd/tripinfo_file.xsd">
    <tripinfo id="mixed.11" depart="11.00" departLane="beg_2" departPos="5.10" departPosLat="-0.39" departSpeed="0.00" departDelay="0.00" arrival="216.00" arrivalLane="end_2" arrivalPos="200.00" arrivalPosLat="0.00" arrivalSpeed="15.05" duration="205.00" routeLength="494.90" waitingTime="159.00" waitingCount="1" stopTime="0.00" timeLoss="172.01" rerouteNo="0" devices="tripinfo_mixed.11" vType="car" speedFactor="1.08" vaporized=""/>
    <tripinfo id="mixed.5" depart="5.00" departLane="beg_0" departPos="5.10" departPosLat="-0.27" departSpeed="0.00" departDelay="0.00" arrival="217.00" arrivalLane="end_0" arrivalPos="200.00" arrivalPosLat="0.00" arrivalSpeed="13.84" duration="212.00" routeLength="494.90" waitingTime="164.00" waitingCount="1" stopTime="0.00" timeLoss="177.14" rerouteNo="0" devices="tripinfo_mixed.5" vType="car" speedFactor="1.03" vaporized=""/>
    <tripinfo id="mixed.8" depart="8.00" departLane="beg_0" departPos="5.10" departPosLat="-0.37" departSpeed="0.00" departDelay="0.00" arrival="218.00" arrivalLane="end_1" arrivalPos="200.00" arrivalPosLat="0.00" arrivalSpeed="16.25" duration="210.00" routeLength="494.90" waitingTime="161.00" waitingCount="1" stopTime="0.00" timeLoss="181.39" rerouteNo="0" devices="tripinfo_mixed.8" vType="car" speedFactor="1.25" vaporized=""/>
    <tripinfo id="mixed.17" depart="18.00" departLane="beg_0" departPos="5.10" departPosLat="-0.41" departSpeed="0.00" departDelay="1.00" arrival="222.00" arrivalLane="end_1" arrivalPos="200.00" arrivalPosLat="0.00" arrivalSpeed="14.07" duration="204.00" routeLength="494.90" waitingTime="154.00" waitingCount="1" stopTime="0.00" timeLoss="168.77" rerouteNo="0" devices="tripinfo_mixed.17" vType="car" speedFactor="1.02" vaporized=""/>
    <tripinfo id="mixed.3" depart="4.00" departLane="beg_1" departPos="2.20" departPosLat="0.91" departSpeed="0.00" departDelay="1.00" arrival="223.00" arrivalLane="end_0" arrivalPos="200.00" arrivalPosLat="-1.21" arrivalSpeed="13.24" duration="219.00" routeLength="497.80" waitingTime="163.00" waitingCount="1" stopTime="0.00" timeLoss="181.69" rerouteNo="0" devices="tripinfo_mixed.3" vType="moped" speedFactor="0.98" vaporized=""/>
    <tripinfo id="mixed.6" depart="6.00" departLane="beg_2" departPos="2.20" departPosLat="1.06" departSpeed="0.00" departDelay="0.00" arrival="223.00" arrivalLane="end_1" arrivalPos="200.00" arrivalPosLat="1.59" arrivalSpeed="16.55" duration="217.00" routeLength="497.80" waitingTime="158.00" waitingCount="1" stopTime="0.00" timeLoss="186.50" rerouteNo="0" devices="tripinfo_mixed.6" vType="moped" speedFactor="1.36" vaporized=""/>
    <tripinfo id="mixed.14" depart="14.00" departLane="beg_1" departPos="2.20" departPosLat="0.19" departSpeed="0.00" departDelay="0.00" arrival="223.00" arrivalLane="end_0" arrivalPos="200.00" arrivalPosLat="0.19" arrivalSpeed="14.16" duration="209.00" routeLength="497.80" waitingTime="156.00" waitingCount="1" stopTime="0.00" timeLoss="174.49" rerouteNo="0" devices="tripinfo_mixed.14" vType="moped" speedFactor="1.04" vaporized=""/>
    <tripinfo id="mixed.26" depart="27.00" departLane="beg_1" departPos="2.20" departPosLat="0.22" departSpeed="0.00" departDelay="1.00" arrival="224.00" arrivalLane="end_0" arrivalPos="200.00" arrivalPosLat="1.41" arrivalSpeed="14.55" duration="197.00" routeLength="497.80" waitingTime="137.00" waitingCount="2" stopTime="0.00" timeLoss="163.76" rerouteNo="0" devices="tripinfo_mixed.26" vType="moped" speedFactor="1.08" vaporized=""/>
    <tripinfo id="mixed.15" depart="16.00" departLane="beg_1" departPos="2.20" departPosLat="1.04" departSpeed="0.00" departDelay="1.00" arrival="226.00" arrivalLane="end_1" arrivalPos="200.00" arrivalPosLat="-1.21" arrivalSpeed="15.08" duration="210.00" routeLength="497.80" waitingTime="156.00" waitingCount="1" stopTime="0.00" timeLoss="177.63" rerouteNo="0" devices="tripinfo_mixed.15" vType="moped" speedFactor="1.12" vaporized=""/>
    <tripinfo id="mixed.24" depart="24.00" departLane="beg_2" departPos="2.20" departPosLat="0.52" departSpeed="0.00" departDelay="0.00" arrival="226.00" arrivalLane="end_0" arrivalPos="200.00" arrivalPosLat="-0.81" arrivalSpeed="13.39" duration="202.00" routeLength="497.80" waitingTime="138.00" waitingCount="2" stopTime="0.00" timeLoss="164.74" rerouteNo="0" devices="tripinfo_mixed.24" vType="moped" speedFactor="0.98" vaporized=""/>
    <tripinfo id="mixed.0" depart="0.00" departLane="beg_2" departPos="2.20" departPosLat="0.51" departSpeed="0.00" departDelay="0.00" arrival="227.00" arrivalLane="end_0" arrivalPos="200.00" arrivalPosLat="-1.21" arrivalSpeed="10.43" duration="227.00" routeLength="497.80" waitingTime="163.00" waitingCount="1" stopTime="0.00" timeLoss="179.02" rerouteNo="0" devices="tripinfo_mixed.0" vType="moped" speedFactor="0.75" vaporized=""/>
    <tripinfo id="mixed.9" depart="12.00" departLane="beg_1" departPos="5.10" departPosLat="-0.36" departSpeed="0.00" departDelay="3.00" arrival="228.00" arrivalLane="end_2" arrivalPos="200.00" arrivalPosLat="0.00" arrivalSpeed="10.00" duration="216.00" routeLength="494.90" waitingTime="157.00" waitingCount="1" stopTime="0.00" timeLoss="171.45" rerouteNo="0" devices="tripinfo_mixed.9" vType="car" speedFactor="0.80" vaporized=""/>
    <tripinfo id="mixed.10" depart="10.00" departLane="beg_0" departPos="2.20" departPosLat="-0.41" departSpeed="0.00" departDelay="0.00" arrival="229.00" arrivalLane="end_0" arrivalPos="200.00" arrivalPosLat="-0.00" arrivalSpeed="9.36" duration="219.00" routeLength="497.80" waitingTime="154.00" waitingCount="1" stopTime="0.00" timeLoss="168.12" rerouteNo="0" devices="tripinfo_mixed.10" vType="moped" speedFactor="0.71" vaporized=""/>
    <tripinfo id="mixed.28" depart="29.00" departLane="beg_0" departPos="2.20" departPosLat="0.94" departSpeed="0.00" departDelay="1.00" arrival="229.00" arrivalLane="end_1" arrivalPos="200.00" arrivalPosLat="-1.41" arrivalSpeed="16.24" duration="200.00" routeLength="497.80" waitingTime="141.00" waitingCount="1" stopTime="0.00" timeLoss="169.69" rerouteNo="0" devices="tripinfo_mixed.28" vType="moped" speedFactor="1.41" vaporized=""/>
    <tripinfo id="mixed.7" depart="7.00" departLane="beg_1" departPos="2.20" departPosLat="-0.25" departSpeed="0.00" departDelay="0.00" arrival="230.00" arrivalLane="end_0" arrivalPos="200.00" arrivalPosLat="-1.21" arrivalSpeed="9.12" duration="223.00" routeLength="497.80" waitingTime="157.00" waitingCount="1" stopTime="0.00" timeLoss="170.62" rerouteNo="0" devices="tripinfo_mixed.7" vType="moped" speedFactor="0.69" vaporized=""/>
    <tripinfo id="mixed.13" depart="15.00" departLane="beg_2" departPos="2.20" departPosLat="1.10" departSpeed="0.00" departDelay="2.00" arrival="230.00" arrivalLane="end_1" arrivalPos="200.00" arrivalPosLat="0.39" arrivalSpeed="13.27" duration="215.00" routeLength="497.80" waitingTime="156.00" waitingCount="1" stopTime="0.00" timeLoss="184.63" rerouteNo="0" devices="tripinfo_mixed.13" vType="moped" speedFactor="1.33" vaporized=""/>
    <tripinfo id="mixed.19" depart="20.00" departLane="beg_2" departPos="5.10" departPosLat="0.02" departSpeed="0.00" departDelay="1.00" arrival="230.00" arrivalLane="end_2" arrivalPos="200.00" arrivalPosLat="0.70" arrivalSpeed="14.76" duration="210.00" routeLength="494.90" waitingTime="154.00" waitingCount="1" stopTime="0.00" timeLoss="175.97" rerouteNo="0" devices="tripinfo_mixed.19" vType="car" speedFactor="1.06" vaporized=""/>
    <tripinfo id="mixed.12" depart="13.00" departLane="beg_2" departPos="2.20" departPosLat="0.52" departSpeed="0.00" departDelay="1.00" arrival="231.00" arrivalLane="end_0" arrivalPos="200.00" arrivalPosLat="-1.19" arrivalSpeed="10.00" duration="218.00" routeLength="497.80" waitingTime="153.00" waitingCount="1" stopTime="0.00" timeLoss="169.13" rerouteNo="0" devices="tripinfo_mixed.12" vType="moped" speedFactor="0.74" vaporized=""/>
    <tripinfo id="mixed.20" depart="24.00" departLane="beg_1" departPos="5.10" departPosLat="0.39" departSpeed="0.00" departDelay="4.00" arrival="232.00" arrivalLane="end_2" arrivalPos="200.00" arrivalPosLat="-0.40" arrivalSpeed="16.59" duration="208.00" routeLength="494.90" waitingTime="154.00" waitingCount="1" stopTime="0.00" timeLoss="179.17" rerouteNo="0" devices="tripinfo_mixed.20" vType="car" speedFactor="1.26" vaporized=""/>
    <tripinfo id="mixed.21" depart="21.00" departLane="beg_1" departPos="5.10" departPosLat="0.18" departSpeed="0.00" departDelay="0.00" arrival="232.00" arrivalLane="end_1" arrivalPos="200.00" arrivalPosLat="0.00" arrivalSpeed="9.75" duration="211.00" routeLength="494.90" waitingTime="151.00" waitingCount="1" stopTime="0.00" timeLoss="165.34" rerouteNo="0" devices="tripinfo_mixed.21" vType="car" speedFactor="0.79" vaporized=""/>
    <tripinfo id="mixed.31" depart="35.00" departLane="beg_1" departPos="2.20" departPosLat="-0.83" departSpeed="0.00" departDelay="4.00" arrival="232.00" arrivalLane="end_0" arrivalPos="200.00" arrivalPosLat="0.61" arrivalSpeed="16.31" duration="197.00" routeLength="497.80" waitingTime="142.00" waitingCount="1" stopTime="0.00" timeLoss="166.18" rerouteNo="0" devices="tripinfo_mixed.31" vType="moped" speedFactor="1.26" vaporized=""/>
    <tripinfo id="mixed.44" depart="46.00" departLane="beg_2" departPos="2.20" departPosLat="0.49" departSpeed="0.00" departDelay="2.00" arrival="232.00" arrivalLane="end_2" arrivalPos="200.00" arrivalPosLat="1.21" arrivalSpeed="13.97" duration="186.00" routeLength="497.80" waitingTime="131.00" waitingCount="1" stopTime="0.00" timeLoss="155.47" rerouteNo="0" devices="tripinfo_mixed.44" vType="moped" speedFactor="1.48" vaporized=""/>
    <tripinfo id="mixed.23" depart="25.00" departLane="beg_0" departPos="2.20" departPosLat="-0.05" departSpeed="0.00" departDelay="2.00" arrival="233.00" arrivalLane="end_0" arrivalPos="200.00" arrivalPosLat="1.19" arrivalSpeed="12.60" duration="208.00" routeLength="497.80" waitingTime="143.00" waitingCount="1" stopTime="0.00" timeLoss="177.94" rerouteNo="0" devices="tripinfo_mixed.23" vType="moped" speedFactor="1.49" vaporized=""/>
    <tripinfo id="mixed.25" depart="27.00" departLane="beg_2" departPos="5.10" departPosLat="0.12" departSpeed="0.00" departDelay="2.00" arrival="234.00" arrivalLane="end_2" arrivalPos="200.00" arrivalPosLat="0.00" arrivalSpeed="11.87" duration="207.00" routeLength="494.90" waitingTime="152.00" waitingCount="1" stopTime="0.00" timeLoss="168.95" rerouteNo="0" devices="tripinfo_mixed.25" vType="car" speedFactor="0.94" vaporized=""/>
    <tripinfo id="mixed.30" depart="30.00" departLane="beg_2" departPos="2.20" departPosLat="-0.07" departSpeed="0.00" departDelay="0.00" arrival="234.00" arrivalLane="end_1" arrivalPos="200.00" arrivalPosLat="0.39" arrivalSpeed="12.44" duration="204.00" routeLength="497.80" waitingTime="142.00" waitingCount="1" stopTime="0.00" timeLoss="171.41" rerouteNo="0" devices="tripinfo_mixed.30" vType="moped" speedFactor="1.12" vaporized=""/>
    <tripinfo id="mixed.36" depart="36.00" departLane="beg_0" departPos="2.20" departPosLat="-0.60" departSpeed="0.00" departDelay="0.00" arrival="234.00" arrivalLane="end_1" arrivalPos="200.00" arrivalPosLat="1.19" arrivalSpeed="14.91" duration="198.00" routeLength="497.80" waitingTime="135.00" waitingCount="1" stopTime="0.00" timeLoss="167.34" rerouteNo="0" devices="tripinfo_mixed.36" vType="moped" speedFactor="1.68" vaporized=""/>
    <tripinfo id="mixed.18" depart="27.00" departLane="beg_0" departPos="5.10" departPosLat="0.23" departSpeed="0.00" departDelay="9.00" arrival="236.00" arrivalLane="end_0" arrivalPos="200.00" arrivalPosLat="0.70" arrivalSpeed="9.19" duration="209.00" routeLength="494.90" waitingTime="134.00" waitingCount="2" stopTime="0.00" timeLoss="161.11" rerouteNo="0" devices="tripinfo_mixed.18" vType="car" speedFactor="0.75" vaporized=""/>
    <tripinfo id="mixed.27" depart="29.00" departLane="beg_2" departPos="2.20" departPosLat="-1.17" departSpeed="0.00" departDelay="2.00" arrival="236.00" arrivalLane="end_1" arrivalPos="200.00" arrivalPosLat="-1.21" arrivalSpeed="10.33" duration="207.00" routeLength="497.80" waitingTime="136.00" waitingCount="1" stopTime="0.00" timeLoss="159.41" rerouteNo="0" devices="tripinfo_mixed.27" vType="moped" speedFactor="0.76" vaporized=""/>
    <tripinfo id="mixed.32" depart="37.00" departLane="beg_2" departPos="5.10" departPosLat="-0.05" departSpeed="0.00" departDelay="5.00" arrival="236.00" arrivalLane="end_1" arrivalPos="200.00" arrivalPosLat="0.70" arrivalSpeed="14.91" duration="199.00" routeLength="494.90" waitingTime="148.00" waitingCount="1" stopTime="0.00" timeLoss="165.30" rerouteNo="0" devices="tripinfo_mixed.32" vType="car" speedFactor="1.08" vaporized=""/>
    <tripinfo id="mixed.45" depart="49.00" departLane="beg_2" departPos="2.20" departPosLat="0.72" departSpeed="0.00" departDelay="4.00" arrival="236.00" arrivalLane="end_2" arrivalPos="200.00" arrivalPosLat="0.19" arrivalSpeed="13.49" duration="187.00" routeLength="497.80" waitingTime="128.00" waitingCount="1" stopTime="0.00" timeLoss="150.43" rerouteNo="0" devices="tripinfo_mixed.45" vType="moped" speedFactor="0.99" vaporized=""/>
    <tripinfo id="mixed.4" depart="4.00" departLane="beg_2" departPos="2.20" departPosLat="0.44" departSpeed="0.00" departDelay="0.00" arrival="237.00" arrivalLane="end_0" arrivalPos="200.00" arrivalPosLat="-1.21" arrivalSpeed="7.40" duration="233.00" routeLength="497.80" waitingTime="154.00" waitingCount="1" stopTime="0.00" timeLoss="166.51" rerouteNo="0" devices="tripinfo_mixed.4" vType="moped" speedFactor="0.54" vaporized=""/>
    <tripinfo id="mixed.33" depart="33.00" departLane="beg_1" departPos="2.20" departPosLat="-0.40" departSpeed="0.00" departDelay="0.00" arrival="238.00" arrivalLane="end_1" arrivalPos="200.00" arrivalPosLat="-1.21" arrivalSpeed="10.96" duration="205.00" routeLength="497.80" waitingTime="134.00" waitingCount="2" stopTime="0.00" timeLoss="159.83" rerouteNo="0" devices="tripinfo_mixed.33" vType="moped" speedFactor="0.81" vaporized=""/>
    <tripinfo id="mixed.35" depart="38.00" departLane="beg_1" departPos="2.20" departPosLat="0.17" departSpeed="0.00" departDelay="3.00" arrival="238.00" arrivalLane="end_0" arrivalPos="200.00" arrivalPosLat="0.61" arrivalSpeed="11.55" duration="200.00" routeLength="497.80" waitingTime="133.00" waitingCount="1" stopTime="0.00" timeLoss="169.79" rerouteNo="0" devices="tripinfo_mixed.35" vType="moped" speedFactor="1.25" vaporized=""/>
    <tripinfo id="mixed.43" depart="47.00" departLane="beg_1" departPos="5.10" departPosLat="-0.40" departSpeed="0.00" departDelay="4.00" arrival="238.00" arrivalLane="end_1" arrivalPos="200.00" arrivalPosLat="0.70" arrivalSpeed="12.53" duration="191.00" routeLength="494.90" waitingTime="132.00" waitingCount="1" stopTime="0.00" timeLoss="154.47" rerouteNo="0" devices="tripinfo_mixed.43" vType="car" speedFactor="0.99" vaporized=""/>
    <tripinfo id="mixed.54" depart="61.00" departLane="beg_2" departPos="5.10" departPosLat="-0.58" departSpeed="0.00" departDelay="7.00" arrival="238.00" arrivalLane="end_2" arrivalPos="200.00" arrivalPosLat="0.70" arrivalSpeed="14.62" duration="177.00" routeLength="494.90" waitingTime="124.00" waitingCount="1" stopTime="0.00" timeLoss="142.99" rerouteNo="0" devices="tripinfo_mixed.54" vType="car" speedFactor="1.06" vaporized=""/>
    <tripinfo id="mixed.16" depart="17.00" departLane="beg_1" departPos="2.20" departPosLat="-0.45" departSpeed="0.00" departDelay="1.00" arrival="239.00" arrivalLane="end_0" arrivalPos="200.00" arrivalPosLat="-1.21" arrivalSpeed="7.54" duration="222.00" routeLength="497.80" waitingTime="144.00" waitingCount="1" stopTime="0.00" timeLoss="156.88" rerouteNo="0" devices="tripinfo_mixed.16" vType="moped" speedFactor="0.56" vaporized=""/>
    <tripinfo id="mixed.22" depart="22.00" departLane="beg_0" departPos="2.20" departPosLat="0.18" departSpeed="0.00" departDelay="0.00" arrival="239.00" arrivalLane="end_0" arrivalPos="200.00" arrivalPosLat="0.19" arrivalSpeed="15.24" duration="217.00" routeLength="497.80" waitingTime="134.00" waitingCount="1" stopTime="0.00" timeLoss="186.29" rerouteNo="0" devices="tripinfo_mixed.22" vType="moped" speedFactor="1.62" vaporized=""/>
    <tripinfo id="mixed.38" depart="40.00" departLane="beg_0" departPos="2.20" departPosLat="-1.00" departSpeed="0.00" departDelay="2.00" arrival="239.00" arrivalLane="end_1" arrivalPos="200.00" arrivalPosLat="-1.21" arrivalSpeed="11.52" duration="199.00" routeLength="497.80" waitingTime="133.00" waitingCount="1" stopTime="0.00" timeLoss="163.31" rerouteNo="0" devices="tripinfo_mixed.38" vType="moped" speedFactor="1.01" vaporized=""/>
    <tripinfo id="mixed.52" depart="54.00" departLane="beg_1" departPos="5.10" departPosLat="0.13" departSpeed="0.00" departDelay="2.00" arrival="239.00" arrivalLane="end_1" arrivalPos="200.00" arrivalPosLat="0.40" arrivalSpeed="15.04" duration="185.00" routeLength="494.90" waitingTime="132.00" waitingCount="1" stopTime="0.00" timeLoss="152.80" rerouteNo="0" devices="tripinfo_mixed.52" vType="car" speedFactor="1.11" vaporized=""/>
    <tripinfo id="mixed.37" depart="39.00" departLane="beg_2" departPos="2.20" departPosLat="0.60" departSpeed="0.00" departDelay="2.00" arrival="240.00" arrivalLane="end_0" arrivalPos="200.00" arrivalPosLat="-0.20" arrivalSpeed="11.08" duration="201.00" routeLength="497.80" waitingTime="135.00" waitingCount="1" stopTime="0.00" timeLoss="170.38" rerouteNo="0" devices="tripinfo_mixed.37" vType="moped" speedFactor="1.19" vaporized=""/>
    <tripinfo id="mixed.62" depart="65.00" departLane="beg_2" departPos="5.10" departPosLat="-0.08" departSpeed="0.00" departDelay="3.00" arrival="240.00" arrivalLane="end_2" arrivalPos="200.00" arrivalPosLat="0.00" arrivalSpeed="13.01" duration="175.00" routeLength="494.90" waitingTime="122.00" waitingCount="1" stopTime="0.00" timeLoss="139.12" rerouteNo="0" devices="tripinfo_mixed.62" vType="car" speedFactor="1.01" vaporized=""/>
    <tripinfo id="mixed.50" depart="57.00" departLane="beg_1" departPos="5.10" departPosLat="-0.20" departSpeed="0.00" departDelay="7.00" arrival="241.00" arrivalLane="end_2" arrivalPos="200.00" arrivalPosLat="0.00" arrivalSpeed="13.99" duration="184.00" routeLength="494.90" waitingTime="128.00" waitingCount="2" stopTime="0.00" timeLoss="149.78" rerouteNo="0" devices="tripinfo_mixed.50" vType="car" speedFactor="1.04" vaporized=""/>
    <tripinfo id="mixed.65" depart="68.00" departLane="beg_2" departPos="2.20" departPosLat="0.15" departSpeed="0.00" departDelay="3.00" arrival="241.00" arrivalLane="end_1" arrivalPos="200.00" arrivalPosLat="-0.61" arrivalSpeed="15.26" duration="173.00" routeLength="497.80" waitingTime="120.00" waitingCount="1" stopTime="0.00" timeLoss="142.60" rerouteNo="0" devices="tripinfo_mixed.65" vType="moped" speedFactor="1.21" vaporized=""/>
    <tripinfo id="mixed.42" depart="46.00" departLane="beg_0" departPos="5.10" departPosLat="0.06" departSpeed="0.00" departDelay="4.00" arrival="242.00" arrivalLane="end_0" arrivalPos="200.00" arrivalPosLat="0.00" arrivalSpeed="14.08" duration="196.00" routeLength="494.90" waitingTime="132.00" waitingCount="1" stopTime="0.00" timeLoss="161.07" rerouteNo="0" devices="tripinfo_mixed.42" vType="car" speedFactor="1.05" vaporized=""/>
    <tripinfo id="mixed.56" depart="57.00" departLane="beg_0" departPos="5.10" departPosLat="0.14" departSpeed="0.00" departDelay="1.00" arrival="243.00" arrivalLane="end_2" arrivalPos="200.00" arrivalPosLat="0.00" arrivalSpeed="15.31" duration="186.00" routeLength="494.90" waitingTime="127.00" waitingCount="2" stopTime="0.00" timeLoss="155.19" rerouteNo="0" devices="tripinfo_mixed.56" vType="car" speedFactor="1.17" vaporized=""/>
    <tripinfo id="mixed.41" depart="44.00" departLane="beg_2" departPos="2.20" departPosLat="0.63" departSpeed="0.00" departDelay="3.00" arrival="244.00" arrivalLane="end_0" arrivalPos="200.00" arrivalPosLat="-0.21" arrivalSpeed="11.62" duration="200.00" routeLength="497.80" waitingTime="132.00" waitingCount="1" stopTime="0.00" timeLoss="156.73" rerouteNo="0" devices="tripinfo_mixed.41" vType="moped" speedFactor="0.85" vaporized=""/>
    <tripinfo id="mixed.47" depart="54.00" departLane="beg_0" departPos="2.20" departPosLat="0.10" departSpeed="0.00" departDelay="7.00" arrival="244.00" arrivalLane="end_0" arrivalPos="200.00" arrivalPosLat="-1.21" arrivalSpeed="11.38" duration="190.00" routeLength="497.80" waitingTime="125.00" waitingCount="1" stopTime="0.00" timeLoss="146.46" rerouteNo="0" devices="tripinfo_mixed.47" vType="moped" speedFactor="0.84" vaporized=""/>
    <tripinfo id="mixed.58" depart="60.00" departLane="beg_0" departPos="5.10" departPosLat="-0.10" departSpeed="0.00" departDelay="2.00" arrival="245.00" arrivalLane="end_1" arrivalPos="200.00" arrivalPosLat="0.00" arrivalSpeed="13.24" duration="185.00" routeLength="494.90" waitingTime="124.00" waitingCount="1" stopTime="0.00" timeLoss="149.79" rerouteNo="0" devices="tripinfo_mixed.58" vType="car" speedFactor="1.03" vaporized=""/>
    <tripinfo id="mixed.79" depart="80.00" departLane="beg_1" departPos="5.10" departPosLat="-0.17" departSpeed="0.00" departDelay="1.00" arrival="245.00" arrivalLane="end_2" arrivalPos="200.00" arrivalPosLat="0.00" arrivalSpeed="17.90" duration="165.00" routeLength="494.90" waitingTime="109.00" waitingCount="2" stopTime="0.00" timeLoss="140.42" rerouteNo="0" devices="tripinfo_mixed.79" vType="car" speedFactor="1.50" vaporized=""/>
    <tripinfo id="mixed.74" depart="79.00" departLane="beg_1" departPos="2.20" departPosLat="1.05" departSpeed="0.00" departDelay="5.00" arrival="246.00" arrivalLane="end_2" arrivalPos="200.00" arrivalPosLat="-0.00" arrivalSpeed="15.59" duration="167.00" routeLength="497.80" waitingTime="107.00" waitingCount="1" stopTime="0.00" timeLoss="136.90" rerouteNo="0" devices="tripinfo_mixed.74" vType="moped" speedFactor="1.29" vaporized=""/>
    <tripinfo id="mixed.75" depart="77.00" departLane="beg_2" departPos="2.20" departPosLat="0.13" departSpeed="0.00" departDelay="2.00" arrival="246.00" arrivalLane="end_2" arrivalPos="200.00" arrivalPosLat="-1.20" arrivalSpeed="15.72" duration="169.00" routeLength="497.80" waitingTime="108.00" waitingCount="2" stopTime="0.00" timeLoss="138.84" rerouteNo="0" devices="tripinfo_mixed.75" vType="moped" speedFactor="1.30" vaporized=""/>
    <tripinfo id="mixed.85" depart="86.00" departLane="beg_2" departPos="2.20" departPosLat="0.91" departSpeed="0.00" departDelay="1.00" arrival="246.00" arrivalLane="end_2" arrivalPos="200.00" arrivalPosLat="1.21" arrivalSpeed="16.62" duration="160.00" routeLength="497.80" waitingTime="105.00" waitingCount="1" stopTime="0.00" timeLoss="129.88" rerouteNo="0" devices="tripinfo_mixed.85" vType="moped" speedFactor="1.52" vaporized=""/>
    <tripinfo id="mixed.59" depart="64.00" departLane="beg_1" departPos="2.20" departPosLat="1.02" departSpeed="0.00" departDelay="5.00" arrival="247.00" arrivalLane="end_1" arrivalPos="200.00" arrivalPosLat="0.99" arrivalSpeed="16.51" duration="183.00" routeLength="497.80" waitingTime="120.00" waitingCount="2" stopTime="0.00" timeLoss="152.58" rerouteNo="0" devices="tripinfo_mixed.59" vType="moped" speedFactor="1.33" vaporized=""/>
    <tripinfo id="mixed.60" depart="60.00" departLane="beg_1" departPos="2.20" departPosLat="-0.85" departSpeed="0.00" departDelay="0.00" arrival="247.00" arrivalLane="end_0" arrivalPos="200.00" arrivalPosLat="-1.21" arrivalSpeed="12.53" duration="187.00" routeLength="497.80" waitingTime="123.00" waitingCount="1" stopTime="0.00" timeLoss="146.73" rerouteNo="0" devices="tripinfo_mixed.60" vType="moped" speedFactor="0.90" vaporized=""/>
    <tripinfo id="mixed.39" depart="40.00" departLane="beg_0" departPos="2.20" departPosLat="0.58" departSpeed="0.00" departDelay="1.00" arrival="248.00" arrivalLane="end_0" arrivalPos="200.00" arrivalPosLat="-0.40" arrivalSpeed="13.83" duration="208.00" routeLength="497.80" waitingTime="134.00" waitingCount="1" stopTime="0.00" timeLoss="177.90" rerouteNo="0" devices="tripinfo_mixed.39" vType="moped" speedFactor="1.40" vaporized=""/>
    <tripinfo id="mixed.46" depart="48.00" departLane="beg_0" departPos="2.20" departPosLat="0.58" departSpeed="0.00" departDelay="2.00" arrival="248.00" arrivalLane="end_0" arrivalPos="200.00" arrivalPosLat="0.99" arrivalSpeed="12.99" duration="200.00" routeLength="497.80" waitingTime="124.00" waitingCount="1" stopTime="0.00" timeLoss="161.86" rerouteNo="0" devices="tripinfo_mixed.46" vType="moped" speedFactor="0.95" vaporized=""/>
    <tripinfo id="mixed.51" depart="54.00" departLane="beg_2" departPos="2.20" departPosLat="-0.68" departSpeed="0.00" departDelay="3.00" arrival="248.00" arrivalLane="end_1" arrivalPos="200.00" arrivalPosLat="-1.21" arrivalSpeed="9.86" duration="194.00" routeLength="497.80" waitingTime="121.00" waitingCount="2" stopTime="0.00" timeLoss="143.60" rerouteNo="0" devices="tripinfo_mixed.51" vType="moped" speedFactor="0.71" vaporized=""/>
    <tripinfo id="mixed.71" depart="71.00" departLane="beg_1" departPos="2.20" departPosLat="-0.83" departSpeed="0.00" departDelay="0.00" arrival="248.00" arrivalLane="end_1" arrivalPos="200.00" arrivalPosLat="0.39" arrivalSpeed="16.38" duration="177.00" routeLength="497.80" waitingTime="119.00" waitingCount="1" stopTime="0.00" timeLoss="146.97" rerouteNo="0" devices="tripinfo_mixed.71" vType="moped" speedFactor="1.58" vaporized=""/>
    <tripinfo id="mixed.77" depart="87.00" departLane="beg_1" departPos="5.10" departPosLat="0.44" departSpeed="0.00" departDelay="10.00" arrival="251.00" arrivalLane="end_2" arrivalPos="200.00" arrivalPosLat="0.00" arrivalSpeed="12.24" duration="164.00" routeLength="494.90" waitingTime="104.00" waitingCount="1" stopTime="0.00" timeLoss="126.27" rerouteNo="0" devices="tripinfo_mixed.77" vType="car" speedFactor="0.95" vaporized=""/>
    <tripinfo id="mixed.1" depart="1.00" departLane="beg_2" departPos="2.20" departPosLat="0.59" departSpeed="0.00" departDelay="0.00" arrival="252.00" arrivalLane="end_0" arrivalPos="200.00" arrivalPosLat="-1.21" arrivalSpeed="4.85" duration="251.00" routeLength="497.80" waitingTime="134.00" waitingCount="2" stopTime="0.00" timeLoss="150.37" rerouteNo="0" devices="tripinfo_mixed.1" vType="moped" speedFactor="0.36" vaporized=""/>
    <tripinfo id="mixed.55" depart="57.00" departLane="beg_2" departPos="2.20" departPosLat="1.05" departSpeed="0.00" departDelay="2.00" arrival="252.00" arrivalLane="end_1" arrivalPos="200.00" arrivalPosLat="-0.81" arrivalSpeed="8.82" duration="195.00" routeLength="497.80" waitingTime="119.00" waitingCount="1" stopTime="0.00" timeLoss="141.34" rerouteNo="0" devices="tripinfo_mixed.55" vType="moped" speedFactor="0.67" vaporized=""/>
    <tripinfo id="mixed.48" depart="52.00" departLane="beg_1" departPos="2.20" departPosLat="-0.17" departSpeed="0.00" departDelay="4.00" arrival="253.00" arrivalLane="end_0" arrivalPos="200.00" arrivalPosLat="-0.41" arrivalSpeed="8.23" duration="201.00" routeLength="497.80" waitingTime="120.00" waitingCount="2" stopTime="0.00" timeLoss="143.09" rerouteNo="0" devices="tripinfo_mixed.48" vType="moped" speedFactor="0.63" vaporized=""/>
    <tripinfo id="mixed.49" depart="49.00" departLane="beg_1" departPos="2.20" departPosLat="-0.77" departSpeed="0.00" departDelay="0.00" arrival="253.00" arrivalLane="end_0" arrivalPos="200.00" arrivalPosLat="1.19" arrivalSpeed="10.84" duration="204.00" routeLength="497.80" waitingTime="129.00" waitingCount="1" stopTime="0.00" timeLoss="158.00" rerouteNo="0" devices="tripinfo_mixed.49" vType="moped" speedFactor="0.79" vaporized=""/>
    <tripinfo id="mixed.82" depart="90.00" departLane="beg_1" departPos="5.10" departPosLat="0.51" departSpeed="0.00" departDelay="8.00" arrival="253.00" arrivalLane="end_2" arrivalPos="200.00" arrivalPosLat="0.00" arrivalSpeed="15.32" duration="163.00" routeLength="494.90" waitingTime="103.00" waitingCount="1" stopTime="0.00" timeLoss="132.44" rerouteNo="0" devices="tripinfo_mixed.82" vType="car" speedFactor="1.19" vaporized=""/>
    <tripinfo id="mixed.40" depart="42.00" departLane="beg_1" departPos="2.20" departPosLat="0.19" departSpeed="0.00" departDelay="2.00" arrival="254.00" arrivalLane="end_0" arrivalPos="200.00" arrivalPosLat="-1.21" arrivalSpeed="8.18" duration="212.00" routeLength="497.80" waitingTime="131.00" waitingCount="1" stopTime="0.00" timeLoss="151.66" rerouteNo="0" devices="tripinfo_mixed.40" vType="moped" speedFactor="0.60" vaporized=""/>