<?xml version="1.0" encoding="UTF-8"?>

<!-- generated on Tue Nov 21 12:42:36 2017 by SUMO Version UNKNOWN
<?xml version="1.0" encoding="UTF-8"?>

<configuration xmlns:xsi="http://www.w3.org/2001/XMLSchema-instance" xsi:noNamespaceSchemaLocation="http://sumo.dlr.de/xsd/sumoConfiguration.xsd">

    <input>
        <net-file value="net.net.xml"/>
        <route-files value="input_routes.rou.xml"/>
    </input>

    <output>
        <tripinfo-output value="tripinfos.xml"/>
    </output>

    <processing>
        <lateral-resolution value="0.32"/>
    </processing>

    <report>
        <xml-validation value="never"/>
        <no-step-log value="true"/>
    </report>

</configuration>
-->

<tripinfos xmlns:xsi="http://www.w3.org/2001/XMLSchema-instance" xsi:noNamespaceSchemaLocation="http://sumo.dlr.de/xsd/tripinfo_file.xsd">
    <tripinfo id="block2.0" depart="0.00" departLane="beg_2" departPos="50.00" departPosLat="0.00" departSpeed="13.89" departDelay="0.00" arrival="14.00" arrivalLane="end_1" arrivalPos="40.18" arrivalPosLat="0.00" arrivalSpeed="13.89" duration="14.00" routeLength="181.85" waitSteps="0" timeLoss="0.00" rerouteNo="0" devices="tripinfo_block2.0" vType="blockerType" speedFactor="1.00" vaporized=""/>
    <tripinfo id="block1.0" depart="0.00" departLane="beg_1" departPos="50.00" departPosLat="0.00" departSpeed="13.89" departDelay="0.00" arrival="14.00" arrivalLane="end_0" arrivalPos="40.18" arrivalPosLat="0.00" arrivalSpeed="13.89" duration="14.00" routeLength="181.85" waitSteps="0" timeLoss="0.00" rerouteNo="0" devices="tripinfo_block1.0" vType="blockerType" speedFactor="1.00" vaporized=""/>
    <tripinfo id="block2.1" depart="1.00" departLane="beg_2" departPos="50.00" departPosLat="0.00" departSpeed="11.52" departDelay="-0.50" arrival="15.00" arrivalLane="end_1" arrivalPos="40.18" arrivalPosLat="0.00" arrivalSpeed="13.89" duration="14.00" routeLength="181.85" waitSteps="0" timeLoss="0.53" rerouteNo="0" devices="tripinfo_block2.1" vType="blockerType" speedFactor="1.00" vaporized=""/>
    <tripinfo id="block1.1" depart="1.00" departLane="beg_1" departPos="50.00" departPosLat="0.00" departSpeed="11.52" departDelay="-0.50" arrival="17.00" arrivalLane="end_0" arrivalPos="40.18" arrivalPosLat="0.00" arrivalSpeed="13.89" duration="16.00" routeLength="181.85" waitSteps="0" timeLoss="2.03" rerouteNo="0" devices="tripinfo_block1.1" vType="blockerType" speedFactor="1.00" vaporized=""/>
    <tripinfo id="block2.2" depart="3.00" departLane="beg_2" departPos="50.00" departPosLat="0.00" departSpeed="13.61" departDelay="0.00" arrival="17.00" arrivalLane="end_1" arrivalPos="40.18" arrivalPosLat="0.00" arrivalSpeed="13.89" duration="14.00" routeLength="181.85" waitSteps="0" timeLoss="0.08" rerouteNo="0" devices="tripinfo_block2.2" vType="blockerType" speedFactor="1.00" vaporized=""/>
    <tripinfo id="block2.3" depart="4.00" departLane="beg_2" departPos="50.00" departPosLat="0.00" departSpeed="11.15" departDelay="-0.50" arrival="18.00" arrivalLane="end_1" arrivalPos="40.18" arrivalPosLat="0.00" arrivalSpeed="13.89" duration="14.00" routeLength="181.85" waitSteps="0" timeLoss="0.61" rerouteNo="0" devices="tripinfo_block2.3" vType="blockerType" speedFactor="1.00" vaporized=""/>
    <tripinfo id="block1.2" depart="3.00" departLane="beg_1" departPos="50.00" departPosLat="0.00" departSpeed="13.61" departDelay="0.00" arrival="19.00" arrivalLane="end_0" arrivalPos="40.18" arrivalPosLat="0.00" arrivalSpeed="13.89" duration="16.00" routeLength="181.85" waitSteps="0" timeLoss="2.06" rerouteNo="0" devices="tripinfo_block1.2" vType="blockerType" speedFactor="1.00" vaporized=""/>
    <tripinfo id="block1.3" depart="4.00" departLane="beg_1" departPos="50.00" departPosLat="0.00" departSpeed="11.15" departDelay="-0.50" arrival="20.00" arrivalLane="end_0" arrivalPos="40.18" arrivalPosLat="0.00" arrivalSpeed="13.89" duration="16.00" routeLength="181.85" waitSteps="0" timeLoss="2.90" rerouteNo="0" devices="tripinfo_block1.3" vType="blockerType" speedFactor="1.00" vaporized=""/>
    <tripinfo id="block2.4" depart="6.00" departLane="beg_2" departPos="50.00" departPosLat="0.00" departSpeed="13.28" departDelay="0.00" arrival="20.00" arrivalLane="end_1" arrivalPos="40.18" arrivalPosLat="0.00" arrivalSpeed="13.89" duration="14.00" routeLength="181.85" waitSteps="0" timeLoss="0.15" rerouteNo="0" devices="tripinfo_block2.4" vType="blockerType" speedFactor="1.00" vaporized=""/>
    <tripinfo id="block2.5" depart="7.00" departLane="beg_2" departPos="50.00" departPosLat="0.00" departSpeed="10.78" departDelay="-0.50" arrival="21.00" arrivalLane="end_1" arrivalPos="40.18" arrivalPosLat="0.00" arrivalSpeed="13.89" duration="14.00" routeLength="181.85" waitSteps="0" timeLoss="0.69" rerouteNo="0" devices="tripinfo_block2.5" vType="blockerType" speedFactor="1.00" vaporized=""/>
    <tripinfo id="block1.4" depart="6.00" departLane="beg_1" departPos="50.00" departPosLat="0.00" departSpeed="13.28" departDelay="0.00" arrival="22.00" arrivalLane="end_0" arrivalPos="40.18" arrivalPosLat="0.00" arrivalSpeed="13.89" duration="16.00" routeLength="181.85" waitSteps="0" timeLoss="2.83" rerouteNo="0" devices="tripinfo_block1.4" vType="blockerType" speedFactor="1.00" vaporized=""/>
    <tripinfo id="blocker" depart="0.00" departLane="beg2_0" departPos="0.00" departPosLat="0.00" departSpeed="13.89" departDelay="0.00" arrival="25.00" arrivalLane="end_0" arrivalPos="40.18" arrivalPosLat="0.00" arrivalSpeed="13.89" duration="25.00" routeLength="137.58" waitSteps="10" timeLoss="14.74" rerouteNo="0" devices="tripinfo_blocker" vType="blockerType" speedFactor="1.00" vaporized=""/>
    <tripinfo id="block2.6" depart="9.00" departLane="beg_2" departPos="50.00" departPosLat="0.00" departSpeed="12.91" departDelay="0.00" arrival="52.00" arrivalLane="end_1" arrivalPos="40.18" arrivalPosLat="0.00" arrivalSpeed="13.89" duration="43.00" routeLength="181.85" waitSteps="26" timeLoss="29.62" rerouteNo="0" devices="tripinfo_block2.6" vType="blockerType" speedFactor="1.00" vaporized=""/>
    <tripinfo id="ego" depart="7.00" departLane="beg_0" departPos="145.00" departPosLat="0.00" departSpeed="13.89" departDelay="0.00" arrival="52.00" arrivalLane="end_0" arrivalPos="40.18" arrivalPosLat="0.00" arrivalSpeed="13.89" duration="45.00" routeLength="86.85" waitSteps="34" timeLoss="38.39" rerouteNo="0" devices="tripinfo_ego" vType="egoType" speedFactor="1.00" vaporized=""/>
    <tripinfo id="block2.7" depart="10.00" departLane="beg_2" departPos="50.00" departPosLat="0.00" departSpeed="10.41" departDelay="-0.50" arrival="54.00" arrivalLane="end_1" arrivalPos="40.18" arrivalPosLat="0.00" arrivalSpeed="13.89" duration="44.00" routeLength="181.85" waitSteps="26" timeLoss="30.16" rerouteNo="0" devices="tripinfo_block2.7" vType="blockerType" speedFactor="1.00" vaporized=""/>
    <tripinfo id="block1.5" depart="7.00" departLane="beg_1" departPos="50.00" departPosLat="0.00" departSpeed="10.78" departDelay="-0.50" arrival="54.00" arrivalLane="end_0" arrivalPos="40.18" arrivalPosLat="0.00" arrivalSpeed="13.89" duration="47.00" routeLength="181.85" waitSteps="25" timeLoss="33.09" rerouteNo="0" devices="tripinfo_block1.5" vType="blockerType" speedFactor="1.00" vaporized=""/>
    <tripinfo id="block2.8" depart="12.00" departLane="beg_2" departPos="50.00" departPosLat="0.00" departSpeed="12.54" departDelay="0.00" arrival="55.00" arrivalLane="end_1" arrivalPos="40.18" arrivalPosLat="0.00" arrivalSpeed="13.89" duration="43.00" routeLength="181.85" waitSteps="26" timeLoss="29.70" rerouteNo="0" devices="tripinfo_block2.8" vType="blockerType" speedFactor="1.00" vaporized=""/>
    <tripinfo id="block1.6" depart="9.00" departLane="beg_1" departPos="50.00" departPosLat="0.00" departSpeed="12.91" departDelay="0.00" arrival="55.00" arrivalLane="end_0" arrivalPos="40.18" arrivalPosLat="0.00" arrivalSpeed="13.89" duration="46.00" routeLength="181.85" waitSteps="25" timeLoss="32.63" rerouteNo="0" devices="tripinfo_block1.6" vType="blockerType" speedFactor="1.00" vaporized=""/>
    <tripinfo id="block2.9" depart="13.00" departLane="beg_2" departPos="50.00" departPosLat="0.00" departSpeed="10.04" departDelay="-0.50" arrival="57.00" arrivalLane="end_1" arrivalPos="40.18" arrivalPosLat="0.00" arrivalSpeed="13.89" duration="44.00" routeLength="181.85" waitSteps="26" timeLoss="30.24" rerouteNo="0" devices="tripinfo_block2.9" vType="blockerType" speedFactor="1.00" vaporized=""/>
    <tripinfo id="block1.7" depart="10.00" departLane="beg_1" departPos="50.00" departPosLat="0.00" departSpeed="10.41" departDelay="-0.50" arrival="57.00" arrivalLane="end_0" arrivalPos="40.18" arrivalPosLat="0.00" arrivalSpeed="13.89" duration="47.00" routeLength="181.85" waitSteps="25" timeLoss="33.16" rerouteNo="0" devices="tripinfo_block1.7" vType="blockerType" speedFactor="1.00" vaporized=""/>
    <tripinfo id="block2.10" depart="15.00" departLane="beg_2" departPos="50.00" departPosLat="0.00" departSpeed="12.17" departDelay="0.00" arrival="58.00" arrivalLane="end_1" arrivalPos="40.18" arrivalPosLat="0.00" arrivalSpeed="13.89" duration="43.00" routeLength="181.85" waitSteps="26" timeLoss="29.78" rerouteNo="0" devices="tripinfo_block2.10" vType="blockerType" speedFactor="1.00" vaporized=""/>
    <tripinfo id="block1.8" depart="12.00" departLane="beg_1" departPos="50.00" departPosLat="0.00" departSpeed="12.54" departDelay="0.00" arrival="58.00" arrivalLane="end_0" arrivalPos="40.18" arrivalPosLat="0.00" arrivalSpeed="13.89" duration="46.00" routeLength="181.85" waitSteps="25" timeLoss="32.71" rerouteNo="0" devices="tripinfo_block1.8" vType="blockerType" speedFactor="1.00" vaporized=""/>
    <tripinfo id="block2.11" depart="16.00" departLane="beg_2" departPos="50.00" departPosLat="0.00" departSpeed="9.67" departDelay="-0.50" arrival="60.00" arrivalLane="end_1" arrivalPos="40.18" arrivalPosLat="0.00" arrivalSpeed="13.89" duration="44.00" routeLength="181.85" waitSteps="26" timeLoss="30.32" rerouteNo="0" devices="tripinfo_block2.11" vType="blockerType" speedFactor="1.00" vaporized=""/>
    <tripinfo id="block1.9" depart="13.00" departLane="beg_1" departPos="50.00" departPosLat="0.00" departSpeed="10.04" departDelay="-0.50" arrival="60.00" arrivalLane="end_0" arrivalPos="40.18" arrivalPosLat="0.00" arrivalSpeed="13.89" duration="47.00" routeLength="181.85" waitSteps="25" timeLoss="33.24" rerouteNo="0" devices="tripinfo_block1.9" vType="blockerType" speedFactor="1.00" vaporized=""/>
    <tripinfo id="block2.12" depart="18.00" departLane="beg_2" departPos="50.00" departPosLat="0.00" departSpeed="11.80" departDelay="0.00" arrival="61.00" arrivalLane="end_1" arrivalPos="40.18" arrivalPosLat="0.00" arrivalSpeed="13.89" duration="43.00" routeLength="181.85" waitSteps="26" timeLoss="29.86" rerouteNo="0" devices="tripinfo_block2.12" vType="blockerType" speedFactor="1.00" vaporized=""/>
    <tripinfo id="block1.10" depart="15.00" departLane="beg_1" departPos="50.00" departPosLat="0.00" departSpeed="12.17" departDelay="0.00" arrival="61.00" arrivalLane="end_0" arrivalPos="40.18" arrivalPosLat="0.00" arrivalSpeed="13.89" duration="46.00" routeLength="181.85" waitSteps="25" timeLoss="32.79" rerouteNo="0" devices="tripinfo_block1.10" vType="blockerType" speedFactor="1.00" vaporized=""/>
    <tripinfo id="block2.13" depart="19.00" departLane="beg_2" departPos="50.00" departPosLat="0.00" departSpeed="9.30" departDelay="-0.50" arrival="63.00" arrivalLane="end_1" arrivalPos="40.18" arrivalPosLat="0.00" arrivalSpeed="13.89" duration="44.00" routeLength="181.85" waitSteps="26" timeLoss="30.40" rerouteNo="0" devices="tripinfo_block2.13" vType="blockerType" speedFactor="1.00" vaporized=""/>
    <tripinfo id="block1.11" depart="16.00" departLane="beg_1" departPos="50.00" departPosLat="0.00" departSpeed="9.67" departDelay="-0.50" arrival="63.00" arrivalLane="end_0" arrivalPos="40.18" arrivalPosLat="0.00" arrivalSpeed="13.89" duration="47.00" routeLength="181.85" waitSteps="25" timeLoss="33.33" rerouteNo="0" devices="tripinfo_block1.11" vType="blockerType" speedFactor="1.00" vaporized=""/>
    <tripinfo id="block1.12" depart="18.00" departLane="beg_1" departPos="50.00" departPosLat="0.00" departSpeed="11.80" departDelay="0.00" arrival="64.00" arrivalLane="end_0" arrivalPos="40.18" arrivalPosLat="0.00" arrivalSpeed="13.89" duration="46.00" routeLength="181.85" waitSteps="25" timeLoss="32.87" rerouteNo="0" devices="tripinfo_block1.12" vType="blockerType" speedFactor="1.00" vaporized=""/>
    <tripinfo id="block2.14" depart="21.00" departLane="beg_2" departPos="50.00" departPosLat="0.00" departSpeed="11.43" departDelay="0.00" arrival="65.00" arrivalLane="end_1" arrivalPos="40.18" arrivalPosLat="0.00" arrivalSpeed="13.89" duration="44.00" routeLength="181.85" waitSteps="26" timeLoss="29.94" rerouteNo="0" devices="tripinfo_block2.14" vType="blockerType" speedFactor="1.00" vaporized=""/>
    <tripinfo id="block2.15" depart="22.00" departLane="beg_2" departPos="50.00" departPosLat="0.00" departSpeed="8.89" departDelay="-0.50" arrival="66.00" arrivalLane="end_1" arrivalPos="40.18" arrivalPosLat="0.00" arrivalSpeed="13.89" duration="44.00" routeLength="181.85" waitSteps="26" timeLoss="30.48" rerouteNo="0" devices="tripinfo_block2.15" vType="blockerType" speedFactor="1.00" vaporized=""/>
    <tripinfo id="block1.13" depart="19.00" departLane="beg_1" departPos="50.00" departPosLat="0.00" departSpeed="9.30" departDelay="-0.50" arrival="66.00" arrivalLane="end_0" arrivalPos="40.18" arrivalPosLat="0.00" arrivalSpeed="13.89" duration="47.00" routeLength="181.85" waitSteps="25" timeLoss="33.41" rerouteNo="0" devices="tripinfo_block1.13" vType="blockerType" speedFactor="1.00" vaporized=""/>
    <tripinfo id="block2.16" depart="24.00" departLane="beg_2" departPos="50.00" departPosLat="0.00" departSpeed="11.05" departDelay="0.00" arrival="68.00" arrivalLane="end_1" arrivalPos="40.18" arrivalPosLat="0.00" arrivalSpeed="13.89" duration="44.00" routeLength="181.85" waitSteps="26" timeLoss="30.02" rerouteNo="0" devices="tripinfo_block2.16" vType="blockerType" speedFactor="1.00" vaporized=""/>
    <tripinfo id="block1.14" depart="21.00" departLane="beg_1" departPos="50.00" departPosLat="0.00" departSpeed="5.69" departDelay="0.00" arrival="68.00" arrivalLane="end_0" arrivalPos="40.18" arrivalPosLat="0.00" arrivalSpeed="13.89" duration="47.00" routeLength="181.85" waitSteps="25" timeLoss="32.94" rerouteNo="0" devices="tripinfo_block1.14" vType="blockerType" speedFactor="1.00" vaporized=""/>
    <tripinfo id="block2.17" depart="25.00" departLane="beg_2" departPos="50.00" departPosLat="0.00" departSpeed="8.33" departDelay="-0.50" arrival="99.00" arrivalLane="end_1" arrivalPos="40.18" arrivalPosLat="0.00" arrivalSpeed="13.89" duration="74.00" routeLength="181.85" waitSteps="52" timeLoss="60.62" rerouteNo="0" devices="tripinfo_block2.17" vType="blockerType" speedFactor="1.00" vaporized=""/>
    <tripinfo id="block1.15" depart="23.00" departLane="beg_1" departPos="50.00" departPosLat="0.00" departSpeed="5.49" departDelay="0.50" arrival="99.00" arrivalLane="end_0" arrivalPos="40.18" arrivalPosLat="0.00" arrivalSpeed="13.89" duration="76.00" routeLength="181.85" waitSteps="51" timeLoss="62.62" rerouteNo="0" devices="tripinfo_block1.15" vType="blockerType" speedFactor="1.00" vaporized=""/>
    <tripinfo id="block2.18" depart="27.00" departLane="beg_2" departPos="50.00" departPosLat="0.00" departSpeed="10.68" departDelay="0.00" arrival="101.00" arrivalLane="end_1" arrivalPos="40.18" arrivalPosLat="-0.74" arrivalSpeed="13.89" duration="74.00" routeLength="181.85" waitSteps="52" timeLoss="60.16" rerouteNo="0" devices="tripinfo_block2.18" vType="blockerType" speedFactor="1.00" vaporized=""/>
    <tripinfo id="block1.16" depart="25.00" departLane="beg_1" departPos="50.00" departPosLat="0.00" departSpeed="7.09" departDelay="1.00" arrival="101.00" arrivalLane="end_0" arrivalPos="40.18" arrivalPosLat="-0.22" arrivalSpeed="13.89" duration="76.00" routeLength="181.85" waitSteps="51" timeLoss="62.16" rerouteNo="0" devices="tripinfo_block1.16" vType="blockerType" speedFactor="1.00" vaporized=""/>
    <tripinfo id="block2.19" depart="28.00" departLane="beg_2" departPos="50.00" departPosLat="0.00" departSpeed="7.78" departDelay="-0.50" arrival="102.00" arrivalLane="end_1" arrivalPos="40.18" arrivalPosLat="0.00" arrivalSpeed="13.89" duration="74.00" routeLength="181.85" waitSteps="52" timeLoss="60.70" rerouteNo="0" devices="tripinfo_block2.19" vType="blockerType" speedFactor="1.00" vaporized=""/>
    <tripinfo id="block1.17" depart="27.00" departLane="beg_1" departPos="50.00" departPosLat="0.00" departSpeed="9.55" departDelay="1.50" arrival="102.00" arrivalLane="end_0" arrivalPos="40.18" arrivalPosLat="0.00" arrivalSpeed="13.89" duration="75.00" routeLength="181.85" waitSteps="51" timeLoss="61.70" rerouteNo="0" devices="tripinfo_block1.17" vType="blockerType" speedFactor="1.00" vaporized=""/>
    <tripinfo id="block1.19" depart="30.00" departLane="beg_1" departPos="50.00" departPosLat="0.00" departSpeed="7.96" departDelay="1.50" arrival="104.00" arrivalLane="end_1" arrivalPos="40.18" arrivalPosLat="0.00" arrivalSpeed="13.89" duration="74.00" routeLength="181.85" waitSteps="51" timeLoss="60.24" rerouteNo="0" devices="tripinfo_block1.19" vType="blockerType" speedFactor="1.00" vaporized=""/>
    <tripinfo id="block1.18" depart="28.00" departLane="beg_1" departPos="50.00" departPosLat="0.00" departSpeed="6.08" departDelay="1.00" arrival="104.00" arrivalLane="end_0" arrivalPos="40.18" arrivalPosLat="0.00" arrivalSpeed="13.89" duration="76.00" routeLength="181.85" waitSteps="51" timeLoss="62.24" rerouteNo="0" devices="tripinfo_block1.18" vType="blockerType" speedFactor="1.00" vaporized=""/>
</tripinfos>
