<?xml version="1.0" encoding="UTF-8"?>

<!-- generated on 2022-12-16 11:33:24 by Eclipse SUMO sumo Version v1_15_0+1045-4474c27
This data file and the accompanying materials
are made available under the terms of the Eclipse Public License v2.0
which accompanies this distribution, and is available at
http://www.eclipse.org/legal/epl-v20.html
This file may also be made available under the following Secondary
Licenses when the conditions for such availability set forth in the Eclipse
Public License 2.0 are satisfied: GNU General Public License, version 2
or later which is available at
https://www.gnu.org/licenses/old-licenses/gpl-2.0-standalone.html
SPDX-License-Identifier: EPL-2.0 OR GPL-2.0-or-later
<configuration xmlns:xsi="http://www.w3.org/2001/XMLSchema-instance" xsi:noNamespaceSchemaLocation="http://sumo.dlr.de/xsd/sumoConfiguration.xsd">

    <input>
        <net-file value="net.net.xml"/>
        <route-files value="input_routes.rou.xml"/>
    </input>

    <output>
        <write-license value="true"/>
        <tripinfo-output value="tripinfos.xml"/>
    </output>

    <processing>
        <lateral-resolution value="0.32"/>
        <default.speeddev value="0"/>
    </processing>

    <report>
        <xml-validation value="never"/>
        <no-step-log value="true"/>
    </report>

</configuration>
-->

<tripinfos xmlns:xsi="http://www.w3.org/2001/XMLSchema-instance" xsi:noNamespaceSchemaLocation="http://sumo.dlr.de/xsd/tripinfo_file.xsd">
    <tripinfo id="block1.0" depart="0.00" departLane="beg_1" departPos="50.00" departPosLat="0.00" departSpeed="13.89" departDelay="0.00" arrival="14.00" arrivalLane="end_0" arrivalPos="40.18" arrivalPosLat="0.00" arrivalSpeed="13.89" duration="14.00" routeLength="181.85" waitingTime="0.00" waitingCount="0" stopTime="0.00" timeLoss="0.00" rerouteNo="0" devices="tripinfo_block1.0" vType="blockerType" speedFactor="1.00" vaporized=""/>
    <tripinfo id="block2.0" depart="0.00" departLane="beg_2" departPos="50.00" departPosLat="0.00" departSpeed="13.89" departDelay="0.00" arrival="14.00" arrivalLane="end_1" arrivalPos="40.18" arrivalPosLat="0.00" arrivalSpeed="13.89" duration="14.00" routeLength="181.85" waitingTime="0.00" waitingCount="0" stopTime="0.00" timeLoss="0.00" rerouteNo="0" devices="tripinfo_block2.0" vType="blockerType" speedFactor="1.00" vaporized=""/>
    <tripinfo id="block2.1" depart="2.00" departLane="beg_2" departPos="50.00" departPosLat="0.00" departSpeed="13.89" departDelay="0.50" arrival="16.00" arrivalLane="end_1" arrivalPos="40.18" arrivalPosLat="0.00" arrivalSpeed="13.89" duration="14.00" routeLength="181.85" waitingTime="0.00" waitingCount="0" stopTime="0.00" timeLoss="0.00" rerouteNo="0" devices="tripinfo_block2.1" vType="blockerType" speedFactor="1.00" vaporized=""/>
    <tripinfo id="block2.2" depart="3.00" departLane="beg_2" departPos="50.00" departPosLat="0.00" departSpeed="11.52" departDelay="0.00" arrival="17.00" arrivalLane="end_1" arrivalPos="40.18" arrivalPosLat="0.00" arrivalSpeed="13.89" duration="14.00" routeLength="181.85" waitingTime="0.00" waitingCount="0" stopTime="0.00" timeLoss="0.53" rerouteNo="0" devices="tripinfo_block2.2" vType="blockerType" speedFactor="1.00" vaporized=""/>
    <tripinfo id="block1.1" depart="2.00" departLane="beg_1" departPos="50.00" departPosLat="0.00" departSpeed="13.89" departDelay="0.50" arrival="18.00" arrivalLane="end_0" arrivalPos="40.18" arrivalPosLat="0.00" arrivalSpeed="13.89" duration="16.00" routeLength="181.85" waitingTime="0.00" waitingCount="0" stopTime="0.00" timeLoss="2.29" rerouteNo="0" devices="tripinfo_block1.1" vType="blockerType" speedFactor="1.00" vaporized=""/>
    <tripinfo id="block1.2" depart="3.00" departLane="beg_1" departPos="50.00" departPosLat="0.00" departSpeed="11.52" departDelay="0.00" arrival="19.00" arrivalLane="end_0" arrivalPos="40.18" arrivalPosLat="0.00" arrivalSpeed="13.89" duration="16.00" routeLength="181.85" waitingTime="0.00" waitingCount="0" stopTime="0.00" timeLoss="2.89" rerouteNo="0" devices="tripinfo_block1.2" vType="blockerType" speedFactor="1.00" vaporized=""/>
    <tripinfo id="block2.3" depart="5.00" departLane="beg_2" departPos="50.00" departPosLat="0.00" departSpeed="13.61" departDelay="0.50" arrival="19.00" arrivalLane="end_1" arrivalPos="40.18" arrivalPosLat="0.00" arrivalSpeed="13.89" duration="14.00" routeLength="181.85" waitingTime="0.00" waitingCount="0" stopTime="0.00" timeLoss="0.08" rerouteNo="0" devices="tripinfo_block2.3" vType="blockerType" speedFactor="1.00" vaporized=""/>
    <tripinfo id="block2.4" depart="6.00" departLane="beg_2" departPos="50.00" departPosLat="0.00" departSpeed="11.15" departDelay="0.00" arrival="20.00" arrivalLane="end_1" arrivalPos="40.18" arrivalPosLat="0.00" arrivalSpeed="13.89" duration="14.00" routeLength="181.85" waitingTime="0.00" waitingCount="0" stopTime="0.00" timeLoss="0.61" rerouteNo="0" devices="tripinfo_block2.4" vType="blockerType" speedFactor="1.00" vaporized=""/>
    <tripinfo id="block1.3" depart="5.00" departLane="beg_1" departPos="50.00" departPosLat="0.00" departSpeed="13.61" departDelay="0.50" arrival="21.00" arrivalLane="end_0" arrivalPos="40.18" arrivalPosLat="0.00" arrivalSpeed="13.89" duration="16.00" routeLength="181.85" waitingTime="0.00" waitingCount="0" stopTime="0.00" timeLoss="2.70" rerouteNo="0" devices="tripinfo_block1.3" vType="blockerType" speedFactor="1.00" vaporized=""/>
    <tripinfo id="block2.5" depart="8.00" departLane="beg_2" departPos="50.00" departPosLat="0.00" departSpeed="13.28" departDelay="0.50" arrival="22.00" arrivalLane="end_1" arrivalPos="40.18" arrivalPosLat="0.00" arrivalSpeed="13.89" duration="14.00" routeLength="181.85" waitingTime="0.00" waitingCount="0" stopTime="0.00" timeLoss="0.16" rerouteNo="0" devices="tripinfo_block2.5" vType="blockerType" speedFactor="1.00" vaporized=""/>
    <tripinfo id="blocker" depart="0.00" departLane="beg2_0" departPos="0.00" departPosLat="0.00" departSpeed="13.89" departDelay="0.00" arrival="24.00" arrivalLane="end_0" arrivalPos="40.18" arrivalPosLat="0.00" arrivalSpeed="13.89" duration="24.00" routeLength="137.58" waitingTime="9.00" waitingCount="1" stopTime="0.00" timeLoss="13.42" rerouteNo="0" devices="tripinfo_blocker" vType="blockerType" speedFactor="1.00" vaporized=""/>
    <tripinfo id="block2.6" depart="9.00" departLane="beg_2" departPos="50.00" departPosLat="0.00" departSpeed="10.78" departDelay="0.00" arrival="52.00" arrivalLane="end_1" arrivalPos="40.18" arrivalPosLat="0.00" arrivalSpeed="13.89" duration="43.00" routeLength="181.85" waitingTime="25.00" waitingCount="1" stopTime="0.00" timeLoss="29.62" rerouteNo="0" devices="tripinfo_block2.6" vType="blockerType" speedFactor="1.00" vaporized=""/>
    <tripinfo id="block1.4" depart="6.00" departLane="beg_1" departPos="50.00" departPosLat="0.00" departSpeed="11.15" departDelay="0.00" arrival="53.00" arrivalLane="end_0" arrivalPos="40.18" arrivalPosLat="0.00" arrivalSpeed="13.89" duration="47.00" routeLength="181.85" waitingTime="26.00" waitingCount="1" stopTime="0.00" timeLoss="33.09" rerouteNo="0" devices="tripinfo_block1.4" vType="blockerType" speedFactor="1.00" vaporized=""/>
    <tripinfo id="block2.7" depart="11.00" departLane="beg_2" departPos="50.00" departPosLat="0.00" departSpeed="12.91" departDelay="0.50" arrival="54.00" arrivalLane="end_1" arrivalPos="40.18" arrivalPosLat="0.00" arrivalSpeed="13.89" duration="43.00" routeLength="181.85" waitingTime="25.00" waitingCount="1" stopTime="0.00" timeLoss="29.16" rerouteNo="0" devices="tripinfo_block2.7" vType="blockerType" speedFactor="1.00" vaporized=""/>
    <tripinfo id="ego" depart="7.00" departLane="beg_0" departPos="145.00" departPosLat="0.00" departSpeed="13.89" departDelay="0.00" arrival="55.00" arrivalLane="end_0" arrivalPos="40.18" arrivalPosLat="0.00" arrivalSpeed="13.89" duration="48.00" routeLength="86.85" waitingTime="37.00" waitingCount="1" stopTime="0.00" timeLoss="41.39" rerouteNo="0" devices="tripinfo_ego" vType="egoType" speedFactor="1.00" vaporized=""/>
    <tripinfo id="block2.8" depart="12.00" departLane="beg_2" departPos="50.00" departPosLat="0.00" departSpeed="10.41" departDelay="0.00" arrival="55.00" arrivalLane="end_1" arrivalPos="40.18" arrivalPosLat="0.00" arrivalSpeed="13.89" duration="43.00" routeLength="181.85" waitingTime="25.00" waitingCount="1" stopTime="0.00" timeLoss="29.70" rerouteNo="0" devices="tripinfo_block2.8" vType="blockerType" speedFactor="1.00" vaporized=""/>
    <tripinfo id="block1.5" depart="8.00" departLane="beg_1" departPos="50.00" departPosLat="0.00" departSpeed="13.28" departDelay="0.50" arrival="57.00" arrivalLane="end_0" arrivalPos="40.18" arrivalPosLat="0.00" arrivalSpeed="13.89" duration="49.00" routeLength="181.85" waitingTime="28.00" waitingCount="2" stopTime="0.00" timeLoss="35.09" rerouteNo="0" devices="tripinfo_block1.5" vType="blockerType" speedFactor="1.00" vaporized=""/>
    <tripinfo id="block2.9" depart="14.00" departLane="beg_2" departPos="50.00" departPosLat="0.00" departSpeed="12.54" departDelay="0.50" arrival="57.00" arrivalLane="end_1" arrivalPos="40.18" arrivalPosLat="0.00" arrivalSpeed="13.89" duration="43.00" routeLength="181.85" waitingTime="25.00" waitingCount="1" stopTime="0.00" timeLoss="29.24" rerouteNo="0" devices="tripinfo_block2.9" vType="blockerType" speedFactor="1.00" vaporized=""/>
    <tripinfo id="block1.6" depart="9.00" departLane="beg_1" departPos="50.00" departPosLat="0.00" departSpeed="10.78" departDelay="0.00" arrival="58.00" arrivalLane="end_0" arrivalPos="40.18" arrivalPosLat="0.00" arrivalSpeed="13.89" duration="49.00" routeLength="181.85" waitingTime="28.00" waitingCount="2" stopTime="0.00" timeLoss="35.63" rerouteNo="0" devices="tripinfo_block1.6" vType="blockerType" speedFactor="1.00" vaporized=""/>
    <tripinfo id="block2.10" depart="15.00" departLane="beg_2" departPos="50.00" departPosLat="0.00" departSpeed="10.04" departDelay="0.00" arrival="58.00" arrivalLane="end_1" arrivalPos="40.18" arrivalPosLat="0.00" arrivalSpeed="13.89" duration="43.00" routeLength="181.85" waitingTime="25.00" waitingCount="1" stopTime="0.00" timeLoss="29.79" rerouteNo="0" devices="tripinfo_block2.10" vType="blockerType" speedFactor="1.00" vaporized=""/>
    <tripinfo id="block1.7" depart="11.00" departLane="beg_1" departPos="50.00" departPosLat="0.00" departSpeed="12.91" departDelay="0.50" arrival="60.00" arrivalLane="end_0" arrivalPos="40.18" arrivalPosLat="0.00" arrivalSpeed="13.89" duration="49.00" routeLength="181.85" waitingTime="27.00" waitingCount="2" stopTime="0.00" timeLoss="35.17" rerouteNo="0" devices="tripinfo_block1.7" vType="blockerType" speedFactor="1.00" vaporized=""/>
    <tripinfo id="block2.11" depart="17.00" departLane="beg_2" departPos="50.00" departPosLat="0.00" departSpeed="12.17" departDelay="0.50" arrival="60.00" arrivalLane="end_1" arrivalPos="40.18" arrivalPosLat="0.00" arrivalSpeed="13.89" duration="43.00" routeLength="181.85" waitingTime="25.00" waitingCount="1" stopTime="0.00" timeLoss="29.33" rerouteNo="0" devices="tripinfo_block2.11" vType="blockerType" speedFactor="1.00" vaporized=""/>
    <tripinfo id="block1.8" depart="12.00" departLane="beg_1" departPos="50.00" departPosLat="0.00" departSpeed="10.41" departDelay="0.00" arrival="61.00" arrivalLane="end_0" arrivalPos="40.18" arrivalPosLat="0.00" arrivalSpeed="13.89" duration="49.00" routeLength="181.85" waitingTime="27.00" waitingCount="2" stopTime="0.00" timeLoss="35.71" rerouteNo="0" devices="tripinfo_block1.8" vType="blockerType" speedFactor="1.00" vaporized=""/>
    <tripinfo id="block2.12" depart="18.00" departLane="beg_2" departPos="50.00" departPosLat="0.00" departSpeed="9.67" departDelay="0.00" arrival="61.00" arrivalLane="end_1" arrivalPos="40.18" arrivalPosLat="0.00" arrivalSpeed="13.89" duration="43.00" routeLength="181.85" waitingTime="25.00" waitingCount="1" stopTime="0.00" timeLoss="29.87" rerouteNo="0" devices="tripinfo_block2.12" vType="blockerType" speedFactor="1.00" vaporized=""/>
    <tripinfo id="block1.9" depart="14.00" departLane="beg_1" departPos="50.00" departPosLat="0.00" departSpeed="12.54" departDelay="0.50" arrival="63.00" arrivalLane="end_0" arrivalPos="40.18" arrivalPosLat="0.00" arrivalSpeed="13.89" duration="49.00" routeLength="181.85" waitingTime="27.00" waitingCount="2" stopTime="0.00" timeLoss="35.25" rerouteNo="0" devices="tripinfo_block1.9" vType="blockerType" speedFactor="1.00" vaporized=""/>
    <tripinfo id="block2.13" depart="20.00" departLane="beg_2" departPos="50.00" departPosLat="0.00" departSpeed="11.80" departDelay="0.50" arrival="63.00" arrivalLane="end_1" arrivalPos="40.18" arrivalPosLat="0.00" arrivalSpeed="13.89" duration="43.00" routeLength="181.85" waitingTime="25.00" waitingCount="1" stopTime="0.00" timeLoss="29.41" rerouteNo="0" devices="tripinfo_block2.13" vType="blockerType" speedFactor="1.00" vaporized=""/>
    <tripinfo id="block1.10" depart="15.00" departLane="beg_1" departPos="50.00" departPosLat="0.00" departSpeed="10.04" departDelay="0.00" arrival="64.00" arrivalLane="end_0" arrivalPos="40.18" arrivalPosLat="0.00" arrivalSpeed="13.89" duration="49.00" routeLength="181.85" waitingTime="27.00" waitingCount="2" stopTime="0.00" timeLoss="35.79" rerouteNo="0" devices="tripinfo_block1.10" vType="blockerType" speedFactor="1.00" vaporized=""/>
    <tripinfo id="block2.14" depart="21.00" departLane="beg_2" departPos="50.00" departPosLat="0.00" departSpeed="9.30" departDelay="0.00" arrival="65.00" arrivalLane="end_1" arrivalPos="40.18" arrivalPosLat="0.00" arrivalSpeed="13.89" duration="44.00" routeLength="181.85" waitingTime="25.00" waitingCount="1" stopTime="0.00" timeLoss="29.95" rerouteNo="0" devices="tripinfo_block2.14" vType="blockerType" speedFactor="1.00" vaporized=""/>
    <tripinfo id="block1.11" depart="17.00" departLane="beg_1" departPos="50.00" departPosLat="0.00" departSpeed="12.17" departDelay="0.50" arrival="66.00" arrivalLane="end_0" arrivalPos="40.18" arrivalPosLat="0.00" arrivalSpeed="13.89" duration="49.00" routeLength="181.85" waitingTime="27.00" waitingCount="2" stopTime="0.00" timeLoss="35.33" rerouteNo="0" devices="tripinfo_block1.11" vType="blockerType" speedFactor="1.00" vaporized=""/>
    <tripinfo id="block2.15" depart="23.00" departLane="beg_2" departPos="50.00" departPosLat="0.00" departSpeed="11.43" departDelay="0.50" arrival="66.00" arrivalLane="end_1" arrivalPos="40.18" arrivalPosLat="0.00" arrivalSpeed="13.89" duration="43.00" routeLength="181.85" waitingTime="25.00" waitingCount="1" stopTime="0.00" timeLoss="29.49" rerouteNo="0" devices="tripinfo_block2.15" vType="blockerType" speedFactor="1.00" vaporized=""/>
    <tripinfo id="block1.12" depart="18.00" departLane="beg_1" departPos="50.00" departPosLat="0.00" departSpeed="9.67" departDelay="0.00" arrival="67.00" arrivalLane="end_0" arrivalPos="40.18" arrivalPosLat="0.00" arrivalSpeed="13.89" duration="49.00" routeLength="181.85" waitingTime="27.00" waitingCount="2" stopTime="0.00" timeLoss="35.87" rerouteNo="0" devices="tripinfo_block1.12" vType="blockerType" speedFactor="1.00" vaporized=""/>
    <tripinfo id="block2.16" depart="24.00" departLane="beg_2" departPos="50.00" departPosLat="0.00" departSpeed="8.89" departDelay="0.00" arrival="68.00" arrivalLane="end_1" arrivalPos="40.18" arrivalPosLat="0.00" arrivalSpeed="13.89" duration="44.00" routeLength="181.85" waitingTime="25.00" waitingCount="1" stopTime="0.00" timeLoss="30.03" rerouteNo="0" devices="tripinfo_block2.16" vType="blockerType" speedFactor="1.00" vaporized=""/>
    <tripinfo id="block1.13" depart="20.00" departLane="beg_1" departPos="50.00" departPosLat="0.00" departSpeed="8.33" departDelay="0.50" arrival="99.00" arrivalLane="end_0" arrivalPos="40.18" arrivalPosLat="0.00" arrivalSpeed="13.89" duration="79.00" routeLength="181.85" waitingTime="53.00" waitingCount="3" stopTime="0.00" timeLoss="65.55" rerouteNo="0" devices="tripinfo_block1.13" vType="blockerType" speedFactor="1.00" vaporized=""/>
    <tripinfo id="block2.17" depart="26.00" departLane="beg_2" departPos="50.00" departPosLat="0.00" departSpeed="11.05" departDelay="0.50" arrival="99.00" arrivalLane="end_1" arrivalPos="40.18" arrivalPosLat="0.00" arrivalSpeed="13.89" duration="73.00" routeLength="181.85" waitingTime="51.00" waitingCount="2" stopTime="0.00" timeLoss="59.62" rerouteNo="0" devices="tripinfo_block2.17" vType="blockerType" speedFactor="1.00" vaporized=""/>
    <tripinfo id="block1.14" depart="21.00" departLane="beg_1" departPos="50.00" departPosLat="0.00" departSpeed="4.58" departDelay="0.00" arrival="101.00" arrivalLane="end_0" arrivalPos="40.18" arrivalPosLat="0.00" arrivalSpeed="13.89" duration="80.00" routeLength="181.85" waitingTime="53.00" waitingCount="3" stopTime="0.00" timeLoss="66.09" rerouteNo="0" devices="tripinfo_block1.14" vType="blockerType" speedFactor="1.00" vaporized=""/>
    <tripinfo id="block2.18" depart="27.00" departLane="beg_2" departPos="50.00" departPosLat="0.00" departSpeed="8.33" departDelay="0.00" arrival="101.00" arrivalLane="end_1" arrivalPos="40.18" arrivalPosLat="0.00" arrivalSpeed="13.89" duration="74.00" routeLength="181.85" waitingTime="52.00" waitingCount="2" stopTime="0.00" timeLoss="60.16" rerouteNo="0" devices="tripinfo_block2.18" vType="blockerType" speedFactor="1.00" vaporized=""/>
    <tripinfo id="block1.15" depart="23.00" departLane="beg_1" departPos="50.00" departPosLat="0.00" departSpeed="5.72" departDelay="0.50" arrival="102.00" arrivalLane="end_0" arrivalPos="40.18" arrivalPosLat="0.00" arrivalSpeed="13.89" duration="79.00" routeLength="181.85" waitingTime="53.00" waitingCount="3" stopTime="0.00" timeLoss="65.63" rerouteNo="0" devices="tripinfo_block1.15" vType="blockerType" speedFactor="1.00" vaporized=""/>
    <tripinfo id="block2.19" depart="29.00" departLane="beg_2" departPos="50.00" departPosLat="0.00" departSpeed="10.68" departDelay="0.50" arrival="102.00" arrivalLane="end_1" arrivalPos="40.18" arrivalPosLat="0.00" arrivalSpeed="13.89" duration="73.00" routeLength="181.85" waitingTime="52.00" waitingCount="2" stopTime="0.00" timeLoss="59.70" rerouteNo="0" devices="tripinfo_block2.19" vType="blockerType" speedFactor="1.00" vaporized=""/>
    <tripinfo id="block1.16" depart="25.00" departLane="beg_1" departPos="50.00" departPosLat="0.00" departSpeed="2.27" departDelay="1.00" arrival="104.00" arrivalLane="end_0" arrivalPos="40.18" arrivalPosLat="0.00" arrivalSpeed="13.89" duration="79.00" routeLength="181.85" waitingTime="53.00" waitingCount="3" stopTime="0.00" timeLoss="65.17" rerouteNo="0" devices="tripinfo_block1.16" vType="blockerType" speedFactor="1.00" vaporized=""/>
    <tripinfo id="block1.17" depart="28.00" departLane="beg_1" departPos="50.00" departPosLat="0.00" departSpeed="7.29" departDelay="2.50" arrival="104.00" arrivalLane="end_1" arrivalPos="40.18" arrivalPosLat="0.00" arrivalSpeed="13.89" duration="76.00" routeLength="181.85" waitingTime="51.00" waitingCount="3" stopTime="0.00" timeLoss="62.24" rerouteNo="0" devices="tripinfo_block1.17" vType="blockerType" speedFactor="1.00" vaporized=""/>
    <tripinfo id="block1.18" depart="30.00" departLane="beg_1" departPos="50.00" departPosLat="0.00" departSpeed="9.81" departDelay="3.00" arrival="105.00" arrivalLane="end_0" arrivalPos="40.18" arrivalPosLat="0.00" arrivalSpeed="13.89" duration="75.00" routeLength="181.85" waitingTime="52.00" waitingCount="2" stopTime="0.00" timeLoss="61.71" rerouteNo="0" devices="tripinfo_block1.18" vType="blockerType" speedFactor="1.00" vaporized=""/>
    <tripinfo id="block1.19" depart="31.00" departLane="beg_1" departPos="50.00" departPosLat="0.00" departSpeed="6.47" departDelay="2.50" arrival="105.00" arrivalLane="end_1" arrivalPos="40.18" arrivalPosLat="0.00" arrivalSpeed="13.89" duration="74.00" routeLength="181.85" waitingTime="49.00" waitingCount="2" stopTime="0.00" timeLoss="60.78" rerouteNo="0" devices="tripinfo_block1.19" vType="blockerType" speedFactor="1.00" vaporized=""/>
</tripinfos>
