<?xml version="1.0"?>

<!-- generated on 10/07/09 14:28:52 by SUMO sumo Version dev-SVN-r7822
<configuration>

    <input>
        <net-file value="three_split.net.xml"/>
        <additional-files value="input_routes.rou.xml,input_additional.add.xml"/>
    </input>

    <output>
        <vehroute-output value="vehroutes.xml"/>
    </output>

    <time>
        <begin value="100"/>
    </time>

    <report>
        <no-duration-log value="true"/>
        <no-step-log value="true"/>
    </report>

</configuration>
-->

<routes>
    <vehicle id="5" depart="100" arrival="233">
        <replacedRoute replacedOnEdge="beg" replacedAtTime="100" edges="beg middle end rend"/>
        <route edges="beg beg2right right right2end"/>
   </vehicle>

    <vehicle id="6" depart="120" arrival="253">
        <replacedRoute replacedOnEdge="beg" replacedAtTime="120" edges="beg middle end rend"/>
        <route edges="beg beg2right right right2end"/>
   </vehicle>

    <vehicle id="7" depart="140" arrival="273">
        <replacedRoute replacedOnEdge="beg" replacedAtTime="140" edges="beg middle end rend"/>
        <route edges="beg beg2right right right2end"/>
   </vehicle>

    <vehicle id="8" depart="160" arrival="293">
        <replacedRoute replacedOnEdge="beg" replacedAtTime="160" edges="beg middle end rend"/>
        <route edges="beg beg2right right right2end"/>
   </vehicle>

    <vehicle id="9" depart="180" arrival="312">
        <replacedRoute replacedOnEdge="beg" replacedAtTime="180" edges="beg middle end rend"/>
        <route edges="beg beg2left left left2end"/>
   </vehicle>

</routes>
