<?xml version="1.0" encoding="UTF-8"?>

<!-- generated on 2026-01-23T11:05:48.534144+01:00 by Eclipse SUMO sumo v1_25_0+1151-2ef687ab93b
<sumoConfiguration xmlns:xsi="http://www.w3.org/2001/XMLSchema-instance" xsi:noNamespaceSchemaLocation="http://sumo.dlr.de/xsd/sumoConfiguration.xsd">

    <input>
        <net-file value="input_net2.net.xml"/>
        <route-files value="input_routes.rou.xml"/>
        <additional-files value="input_additional.add.xml"/>
    </input>

    <output>
        <vehroute-output value="vehroutes.xml"/>
        <save-state.times value="30"/>
        <save-state.files value="state.xml"/>
    </output>

    <time>
        <end value="60"/>
    </time>

    <report>
        <duration-log.disable value="true"/>
        <no-step-log value="true"/>
    </report>

    <mesoscopic>
        <mesosim value="true"/>
    </mesoscopic>

</sumoConfiguration>
-->

<snapshot type="meso" version="v1_25_0+1151-2ef687ab93b" time="30.00" xmlns:xsi="http://www.w3.org/2001/XMLSchema-instance" xsi:noNamespaceSchemaLocation="http://sumo.dlr.de/xsd/state_file.xsd">
    <route id="r0" state="1" edges="SC CN"/>
    <delay number="2" begin="3" end="1" depart="0.00" time="9.00"/>
    <vType id="car" sigma="0"/>
    <vehicle id="cali.0.1" type="car" depart="24.00" departPos="random_free" departSpeed="max" route="r0" distance="91.95 0" speedFactor="0.9383" state="2074 24000 1 0 0 0 34618 27563 9223372036854774807">
        <device id="vehroute_cali.0.1" state="31.27 0.00 0"/>
    </vehicle>
    <vehicle id="cali.0.2" type="car" depart="24.00" departPos="random_free" departSpeed="max" route="r0" distance="91.95 0" speedFactor="1.0104" state="2074 24000 1 0 0 0 33282 26730 9223372036854774807">
        <device id="vehroute_cali.0.2" state="33.68 0.00 0"/>
    </vehicle>
    <segment id="CN:0">
        <vehicles time="26848" blockTime="28396" value="cali.0.1 cali.0.2"/>
    </segment>
    <segment id="SC:0">
        <vehicles time="29232" blockTime="-9223372036854775808" value=""/>
        <vehicles time="28399" blockTime="-9223372036854775808" value=""/>
    </segment>
    <tlLogic id="C" programID="0" phase="0" duration="30000" active="1"/>
</snapshot>
