<?xml version="1.0" encoding="UTF-8"?>

<!-- generated on 2026-04-22T13:38:13.546745+01:00 by Eclipse SUMO sumo v1_26_0+1328-df373da80cc
<sumoConfiguration xmlns:xsi="http://www.w3.org/2001/XMLSchema-instance" xsi:noNamespaceSchemaLocation="http://sumo.dlr.de/xsd/sumoConfiguration.xsd">

    <input>
        <net-file value="input_net2.net.xml"/>
        <additional-files value="input_additional.add.xml"/>
        <load-state value="state.xml"/>
    </input>

    <output>
        <vehroute-output value="vehroutes2.xml"/>
    </output>

    <processing>
        <default.departspeed value="0"/>
        <default.departlane value="first"/>
    </processing>

    <report>
        <duration-log.disable value="true"/>
        <no-step-log value="true"/>
    </report>

    <mesoscopic>
        <mesosim value="true"/>
    </mesoscopic>

</sumoConfiguration>
-->

<routes xmlns:xsi="http://www.w3.org/2001/XMLSchema-instance" xsi:noNamespaceSchemaLocation="http://sumo.dlr.de/xsd/routes_file.xsd">
    <vehicle id="cali.0.2" type="car" depart="24.00" departPos="0.00" departSpeed="33.68" speedFactor="1.0104" arrival="34.00">
        <route edges="SC CN"/>
    </vehicle>

    <vehicle id="cali.0.1" type="car" depart="24.00" departPos="0.00" departSpeed="31.27" speedFactor="0.9383" arrival="36.00">
        <route edges="SC CN"/>
    </vehicle>

    <vehicle id="cali.0.0" type="car" depart="30.00" departPos="0.00" departSpeed="35.3246" speedFactor="1.0600" arrival="44.00">
        <route edges="SC CN"/>
    </vehicle>

    <vehicle id="cali.0.1" type="car" depart="30.00" departPos="0.00" departSpeed="33.6766" speedFactor="1.0104" arrival="46.00">
        <route edges="SC CN"/>
    </vehicle>

    <vehicle id="cali.0.2" type="car" depart="30.00" departPos="0.00" departSpeed="21.5239" speedFactor="1.0303" arrival="46.00">
        <route edges="SC CN"/>
    </vehicle>

</routes>
