<?xml version="1.0" encoding="UTF-8"?>

<!-- generated on 2025-09-25T09:07:45.790013+01:00 by Eclipse SUMO sumo v1_24_0+0959-3b61bb515b8
This data file and the accompanying materials
are made available under the terms of the Eclipse Public License v2.0
which accompanies this distribution, and is available at
http://www.eclipse.org/legal/epl-v20.html
This file may also be made available under the following Secondary
Licenses when the conditions for such availability set forth in the Eclipse
Public License 2.0 are satisfied: GNU General Public License, version 2
or later which is available at
https://www.gnu.org/licenses/old-licenses/gpl-2.0-standalone.html
SPDX-License-Identifier: EPL-2.0 OR GPL-2.0-or-later
<sumoConfiguration xmlns:xsi="http://www.w3.org/2001/XMLSchema-instance" xsi:noNamespaceSchemaLocation="http://sumo.dlr.de/xsd/sumoConfiguration.xsd">

    <input>
        <net-file value="net2.net.xml"/>
        <additional-files value="input_routes.rou.xml,input_additional.add.xml"/>
    </input>

    <output>
        <write-license value="true"/>
    </output>

    <time>
        <begin value="0"/>
        <end value="200"/>
    </time>

    <processing>
        <lateral-resolution value="0.8"/>
        <time-to-teleport value="-1"/>
        <tls.all-off value="true"/>
        <default.speeddev value="0"/>
    </processing>

    <report>
        <xml-validation value="never"/>
        <duration-log.disable value="true"/>
        <no-step-log value="true"/>
    </report>

</sumoConfiguration>
-->

<meandata xmlns:xsi="http://www.w3.org/2001/XMLSchema-instance" xsi:noNamespaceSchemaLocation="http://sumo.dlr.de/xsd/meandata_file.xsd">
    <interval begin="120.00" end="135.00" id="dump_15">
        <edge id="CN" sampledSeconds="3765.00" traveltime="100000.00" overlapTraveltime="100000.00" density="2729.74" laneDensity="1364.87" occupancy="204.73" waitingTime="3675.00" timeLoss="3675.00" speed="0.00" speedRelative="0.00" departed="0" arrived="0" entered="0" left="0" laneChangedFrom="0" laneChangedTo="0"/>
        <edge id="SC" sampledSeconds="1568.50" traveltime="53.75" overlapTraveltime="54.56" density="1137.21" laneDensity="568.61" occupancy="84.03" waitingTime="40.00" timeLoss="1084.97" speed="1.71" speedRelative="0.12" departed="42" arrived="0" entered="0" left="24" laneChangedFrom="0" laneChangedTo="0"/>
    </interval>
    <interval begin="135.00" end="150.00" id="dump_15">
        <edge id="CN" sampledSeconds="3765.00" traveltime="100000.00" overlapTraveltime="100000.00" density="2729.74" laneDensity="1364.87" occupancy="204.73" waitingTime="3675.00" timeLoss="3675.00" speed="0.00" speedRelative="0.00" departed="0" arrived="0" entered="0" left="0" laneChangedFrom="0" laneChangedTo="0"/>
        <edge id="SC" sampledSeconds="2045.93" traveltime="89.65" overlapTraveltime="91.10" density="1483.37" laneDensity="741.68" occupancy="110.60" waitingTime="507.00" timeLoss="1668.15" speed="1.03" speedRelative="0.07" departed="36" arrived="0" entered="0" left="1" laneChangedFrom="0" laneChangedTo="0"/>
    </interval>
    <interval begin="150.00" end="165.00" id="dump_15">
        <edge id="CN" sampledSeconds="3765.00" traveltime="100000.00" overlapTraveltime="100000.00" density="2729.74" laneDensity="1364.87" occupancy="204.73" waitingTime="3675.00" timeLoss="3675.00" speed="0.00" speedRelative="0.00" departed="0" arrived="0" entered="0" left="0" laneChangedFrom="0" laneChangedTo="0"/>
        <edge id="SC" sampledSeconds="2540.00" traveltime="169.39" overlapTraveltime="172.16" density="1841.58" laneDensity="920.79" occupancy="137.36" waitingTime="1362.00" timeLoss="2291.82" speed="0.54" speedRelative="0.04" departed="31" arrived="0" entered="0" left="0" laneChangedFrom="0" laneChangedTo="0"/>
    </interval>
    <interval begin="165.00" end="180.00" id="dump_15">
        <edge id="CN" sampledSeconds="3765.00" overlapTraveltime="100000.00" density="2729.74" laneDensity="1364.87" occupancy="204.73" waitingTime="3675.00" timeLoss="3675.00" speed="0.00" speedRelative="0.00" departed="0" arrived="0" entered="0" left="0" laneChangedFrom="0" laneChangedTo="0"/>
        <edge id="SC" sampledSeconds="2964.00" traveltime="376.18" overlapTraveltime="382.31" density="2148.99" laneDensity="1074.50" occupancy="160.47" waitingTime="2240.00" timeLoss="2833.59" speed="0.24" speedRelative="0.02" departed="25" arrived="0" entered="0" left="0" laneChangedFrom="0" laneChangedTo="0"/>
    </interval>
</meandata>
