<?xml version="1.0" encoding="UTF-8"?>

<!-- generated on Fri Feb 14 15:44:19 2020 by Eclipse SUMO Version v1_5_0+0058-3df095d
This data file and the accompanying materials
are made available under the terms of the Eclipse Public License v2.0
which accompanies this distribution, and is available at
http://www.eclipse.org/legal/epl-v20.html
SPDX-License-Identifier: EPL-2.0
<configuration xmlns:xsi="http://www.w3.org/2001/XMLSchema-instance" xsi:noNamespaceSchemaLocation="http://sumo.dlr.de/xsd/sumoConfiguration.xsd">

    <input>
        <net-file value="net.net.xml"/>
        <route-files value="input_routes.rou.xml"/>
    </input>

    <output>
        <write-license value="true"/>
        <tripinfo-output value="tripinfos.xml"/>
    </output>

    <processing>
        <lateral-resolution value="0.64"/>
        <default.speeddev value="0"/>
    </processing>

    <report>
        <verbose value="true"/>
        <xml-validation value="never"/>
        <duration-log.statistics value="true"/>
        <no-step-log value="true"/>
    </report>

</configuration>
-->

<tripinfos xmlns:xsi="http://www.w3.org/2001/XMLSchema-instance" xsi:noNamespaceSchemaLocation="http://sumo.dlr.de/xsd/tripinfo_file.xsd">
    <tripinfo id="mixed.8" depart="13.00" departLane="beg_1" departPos="5.10" departPosLat="0.07" departSpeed="0.00" departDelay="5.00" arrival="215.00" arrivalLane="end_0" arrivalPos="200.00" arrivalPosLat="-0.70" arrivalSpeed="16.99" duration="202.00" routeLength="494.90" waitingTime="162.00" waitingCount="1" stopTime="0.00" timeLoss="173.19" rerouteNo="0" devices="tripinfo_mixed.8" vType="car" speedFactor="1.25" vaporized=""/>
    <tripinfo id="mixed.5" depart="10.00" departLane="beg_1" departPos="5.10" departPosLat="-0.33" departSpeed="0.00" departDelay="5.00" arrival="217.00" arrivalLane="end_0" arrivalPos="200.00" arrivalPosLat="-0.70" arrivalSpeed="13.83" duration="207.00" routeLength="494.90" waitingTime="163.00" waitingCount="1" stopTime="0.00" timeLoss="171.87" rerouteNo="0" devices="tripinfo_mixed.5" vType="car" speedFactor="1.03" vaporized=""/>
    <tripinfo id="mixed.11" depart="16.00" departLane="beg_0" departPos="5.10" departPosLat="-0.55" departSpeed="0.00" departDelay="5.00" arrival="219.00" arrivalLane="end_0" arrivalPos="200.00" arrivalPosLat="-0.70" arrivalSpeed="14.99" duration="203.00" routeLength="494.90" waitingTime="151.00" waitingCount="1" stopTime="0.00" timeLoss="169.41" rerouteNo="0" devices="tripinfo_mixed.11" vType="car" speedFactor="1.08" vaporized=""/>
    <tripinfo id="mixed.3" depart="3.00" departLane="beg_1" departPos="2.20" departPosLat="0.59" departSpeed="0.00" departDelay="0.00" arrival="222.00" arrivalLane="end_0" arrivalPos="200.00" arrivalPosLat="-1.20" arrivalSpeed="13.31" duration="219.00" routeLength="497.80" waitingTime="164.00" waitingCount="1" stopTime="0.00" timeLoss="182.07" rerouteNo="0" devices="tripinfo_mixed.3" vType="moped" speedFactor="0.98" vaporized=""/>
    <tripinfo id="mixed.6" depart="11.00" departLane="beg_0" departPos="2.20" departPosLat="0.52" departSpeed="0.00" departDelay="5.00" arrival="224.00" arrivalLane="end_0" arrivalPos="200.00" arrivalPosLat="-1.20" arrivalSpeed="16.29" duration="213.00" routeLength="497.80" waitingTime="161.00" waitingCount="1" stopTime="0.00" timeLoss="182.33" rerouteNo="0" devices="tripinfo_mixed.6" vType="moped" speedFactor="1.36" vaporized=""/>
    <tripinfo id="mixed.14" depart="20.00" departLane="beg_1" departPos="2.20" departPosLat="0.83" departSpeed="0.00" departDelay="6.00" arrival="224.00" arrivalLane="end_0" arrivalPos="200.00" arrivalPosLat="0.08" arrivalSpeed="14.30" duration="204.00" routeLength="497.80" waitingTime="149.00" waitingCount="1" stopTime="0.00" timeLoss="169.19" rerouteNo="0" devices="tripinfo_mixed.14" vType="moped" speedFactor="1.04" vaporized=""/>
    <tripinfo id="mixed.15" depart="22.00" departLane="beg_1" departPos="2.20" departPosLat="1.15" departSpeed="0.00" departDelay="7.00" arrival="224.00" arrivalLane="end_1" arrivalPos="200.00" arrivalPosLat="-0.96" arrivalSpeed="15.15" duration="202.00" routeLength="497.80" waitingTime="149.00" waitingCount="1" stopTime="0.00" timeLoss="169.39" rerouteNo="0" devices="tripinfo_mixed.15" vType="moped" speedFactor="1.12" vaporized=""/>
    <tripinfo id="mixed.13" depart="15.00" departLane="beg_1" departPos="2.20" departPosLat="0.78" departSpeed="0.00" departDelay="2.00" arrival="226.00" arrivalLane="end_0" arrivalPos="200.00" arrivalPosLat="0.32" arrivalSpeed="16.61" duration="211.00" routeLength="497.80" waitingTime="150.00" waitingCount="1" stopTime="0.00" timeLoss="180.15" rerouteNo="0" devices="tripinfo_mixed.13" vType="moped" speedFactor="1.33" vaporized=""/>
    <tripinfo id="mixed.0" depart="0.00" departLane="beg_0" departPos="2.20" departPosLat="0.51" departSpeed="0.00" departDelay="0.00" arrival="227.00" arrivalLane="end_0" arrivalPos="200.00" arrivalPosLat="-1.20" arrivalSpeed="10.22" duration="227.00" routeLength="497.80" waitingTime="163.00" waitingCount="1" stopTime="0.00" timeLoss="178.46" rerouteNo="0" devices="tripinfo_mixed.0" vType="moped" speedFactor="0.75" vaporized=""/>
    <tripinfo id="mixed.17" depart="29.00" departLane="beg_1" departPos="5.10" departPosLat="-0.68" departSpeed="0.00" departDelay="12.00" arrival="227.00" arrivalLane="end_1" arrivalPos="200.00" arrivalPosLat="-1.34" arrivalSpeed="13.18" duration="198.00" routeLength="494.90" waitingTime="147.00" waitingCount="1" stopTime="0.00" timeLoss="162.18" rerouteNo="0" devices="tripinfo_mixed.17" vType="car" speedFactor="1.02" vaporized=""/>
    <tripinfo id="mixed.9" depart="13.00" departLane="beg_0" departPos="5.10" departPosLat="-0.61" departSpeed="0.00" departDelay="4.00" arrival="228.00" arrivalLane="end_0" arrivalPos="200.00" arrivalPosLat="-0.70" arrivalSpeed="10.27" duration="215.00" routeLength="494.90" waitingTime="153.00" waitingCount="1" stopTime="0.00" timeLoss="170.51" rerouteNo="0" devices="tripinfo_mixed.9" vType="car" speedFactor="0.80" vaporized=""/>
    <tripinfo id="mixed.20" depart="24.00" departLane="beg_0" departPos="5.10" departPosLat="0.40" departSpeed="0.00" departDelay="4.00" arrival="228.00" arrivalLane="end_1" arrivalPos="200.00" arrivalPosLat="-1.38" arrivalSpeed="15.56" duration="204.00" routeLength="494.90" waitingTime="149.00" waitingCount="1" stopTime="0.00" timeLoss="175.56" rerouteNo="0" devices="tripinfo_mixed.20" vType="car" speedFactor="1.26" vaporized=""/>
    <tripinfo id="mixed.22" depart="28.00" departLane="beg_0" departPos="2.20" departPosLat="-1.00" departSpeed="0.00" departDelay="6.00" arrival="228.00" arrivalLane="end_1" arrivalPos="200.00" arrivalPosLat="0.68" arrivalSpeed="16.57" duration="200.00" routeLength="497.80" waitingTime="146.00" waitingCount="1" stopTime="0.00" timeLoss="169.15" rerouteNo="0" devices="tripinfo_mixed.22" vType="moped" speedFactor="1.62" vaporized=""/>
    <tripinfo id="mixed.24" depart="28.00" departLane="beg_0" departPos="2.20" departPosLat="0.57" departSpeed="0.00" departDelay="4.00" arrival="230.00" arrivalLane="end_0" arrivalPos="200.00" arrivalPosLat="-1.20" arrivalSpeed="13.47" duration="202.00" routeLength="497.80" waitingTime="145.00" waitingCount="1" stopTime="0.00" timeLoss="165.20" rerouteNo="0" devices="tripinfo_mixed.24" vType="moped" speedFactor="0.98" vaporized=""/>
    <tripinfo id="mixed.31" depart="40.00" departLane="beg_1" departPos="2.20" departPosLat="1.13" departSpeed="0.00" departDelay="9.00" arrival="231.00" arrivalLane="end_0" arrivalPos="200.00" arrivalPosLat="1.36" arrivalSpeed="16.27" duration="191.00" routeLength="497.80" waitingTime="138.00" waitingCount="1" stopTime="0.00" timeLoss="160.50" rerouteNo="0" devices="tripinfo_mixed.31" vType="moped" speedFactor="1.26" vaporized=""/>
    <tripinfo id="mixed.10" depart="19.00" departLane="beg_0" departPos="2.20" departPosLat="-0.90" departSpeed="0.00" departDelay="9.00" arrival="234.00" arrivalLane="end_0" arrivalPos="200.00" arrivalPosLat="-1.20" arrivalSpeed="9.39" duration="215.00" routeLength="497.80" waitingTime="146.00" waitingCount="1" stopTime="0.00" timeLoss="163.85" rerouteNo="0" devices="tripinfo_mixed.10" vType="moped" speedFactor="0.71" vaporized=""/>
    <tripinfo id="mixed.12" depart="15.00" departLane="beg_1" departPos="2.20" departPosLat="-0.26" departSpeed="0.00" departDelay="3.00" arrival="234.00" arrivalLane="end_0" arrivalPos="200.00" arrivalPosLat="0.68" arrivalSpeed="10.00" duration="219.00" routeLength="497.80" waitingTime="148.00" waitingCount="1" stopTime="0.00" timeLoss="170.27" rerouteNo="0" devices="tripinfo_mixed.12" vType="moped" speedFactor="0.74" vaporized=""/>
    <tripinfo id="mixed.26" depart="35.00" departLane="beg_1" departPos="2.20" departPosLat="0.98" departSpeed="0.00" departDelay="9.00" arrival="234.00" arrivalLane="end_1" arrivalPos="200.00" arrivalPosLat="-0.96" arrivalSpeed="14.85" duration="199.00" routeLength="497.80" waitingTime="136.00" waitingCount="1" stopTime="0.00" timeLoss="164.84" rerouteNo="0" devices="tripinfo_mixed.26" vType="moped" speedFactor="1.08" vaporized=""/>
    <tripinfo id="mixed.36" depart="54.00" departLane="beg_1" departPos="2.20" departPosLat="0.76" departSpeed="0.00" departDelay="18.00" arrival="235.00" arrivalLane="end_1" arrivalPos="200.00" arrivalPosLat="-0.56" arrivalSpeed="16.50" duration="181.00" routeLength="497.80" waitingTime="126.00" waitingCount="1" stopTime="0.00" timeLoss="150.36" rerouteNo="0" devices="tripinfo_mixed.36" vType="moped" speedFactor="1.68" vaporized=""/>
    <tripinfo id="mixed.18" depart="26.00" departLane="beg_1" departPos="5.10" departPosLat="-0.38" departSpeed="0.00" departDelay="8.00" arrival="236.00" arrivalLane="end_0" arrivalPos="200.00" arrivalPosLat="1.18" arrivalSpeed="9.98" duration="210.00" routeLength="494.90" waitingTime="144.00" waitingCount="1" stopTime="0.00" timeLoss="162.04" rerouteNo="0" devices="tripinfo_mixed.18" vType="car" speedFactor="0.75" vaporized=""/>
    <tripinfo id="mixed.4" depart="6.00" departLane="beg_0" departPos="2.20" departPosLat="0.44" departSpeed="0.00" departDelay="2.00" arrival="237.00" arrivalLane="end_0" arrivalPos="200.00" arrivalPosLat="-1.20" arrivalSpeed="7.39" duration="231.00" routeLength="497.80" waitingTime="151.00" waitingCount="1" stopTime="0.00" timeLoss="165.08" rerouteNo="0" devices="tripinfo_mixed.4" vType="moped" speedFactor="0.54" vaporized=""/>
    <tripinfo id="mixed.21" depart="33.00" departLane="beg_0" departPos="5.10" departPosLat="0.58" departSpeed="0.00" departDelay="12.00" arrival="238.00" arrivalLane="end_1" arrivalPos="200.00" arrivalPosLat="-0.10" arrivalSpeed="10.86" duration="205.00" routeLength="494.90" waitingTime="139.00" waitingCount="1" stopTime="0.00" timeLoss="159.41" rerouteNo="0" devices="tripinfo_mixed.21" vType="car" speedFactor="0.79" vaporized=""/>
    <tripinfo id="mixed.30" depart="39.00" departLane="beg_1" departPos="2.20" departPosLat="0.28" departSpeed="0.00" departDelay="9.00" arrival="238.00" arrivalLane="end_0" arrivalPos="200.00" arrivalPosLat="0.68" arrivalSpeed="10.94" duration="199.00" routeLength="497.80" waitingTime="134.00" waitingCount="1" stopTime="0.00" timeLoss="166.75" rerouteNo="0" devices="tripinfo_mixed.30" vType="moped" speedFactor="1.12" vaporized=""/>
    <tripinfo id="mixed.7" depart="8.00" departLane="beg_0" departPos="2.20" departPosLat="-0.82" departSpeed="0.00" departDelay="1.00" arrival="239.00" arrivalLane="end_0" arrivalPos="200.00" arrivalPosLat="-1.20" arrivalSpeed="8.65" duration="231.00" routeLength="497.80" waitingTime="151.00" waitingCount="1" stopTime="0.00" timeLoss="178.69" rerouteNo="0" devices="tripinfo_mixed.7" vType="moped" speedFactor="0.69" vaporized=""/>
    <tripinfo id="mixed.23" depart="32.00" departLane="beg_1" departPos="2.20" departPosLat="-0.28" departSpeed="0.00" departDelay="9.00" arrival="239.00" arrivalLane="end_0" arrivalPos="200.00" arrivalPosLat="0.60" arrivalSpeed="11.19" duration="207.00" routeLength="497.80" waitingTime="140.00" waitingCount="2" stopTime="0.00" timeLoss="177.13" rerouteNo="0" devices="tripinfo_mixed.23" vType="moped" speedFactor="1.49" vaporized=""/>
    <tripinfo id="mixed.32" depart="47.00" departLane="beg_0" departPos="5.10" departPosLat="0.55" departSpeed="0.00" departDelay="15.00" arrival="240.00" arrivalLane="end_1" arrivalPos="200.00" arrivalPosLat="-0.50" arrivalSpeed="13.83" duration="193.00" routeLength="494.90" waitingTime="136.00" waitingCount="1" stopTime="0.00" timeLoss="159.12" rerouteNo="0" devices="tripinfo_mixed.32" vType="car" speedFactor="1.08" vaporized=""/>
    <tripinfo id="mixed.19" depart="49.00" departLane="beg_1" departPos="5.10" departPosLat="-0.37" departSpeed="0.00" departDelay="30.00" arrival="241.00" arrivalLane="end_0" arrivalPos="200.00" arrivalPosLat="-0.70" arrivalSpeed="14.40" duration="192.00" routeLength="494.90" waitingTime="135.00" waitingCount="1" stopTime="0.00" timeLoss="158.26" rerouteNo="0" devices="tripinfo_mixed.19" vType="car" speedFactor="1.06" vaporized=""/>
    <tripinfo id="mixed.39" depart="54.00" departLane="beg_1" departPos="2.20" departPosLat="-0.67" departSpeed="0.00" departDelay="15.00" arrival="242.00" arrivalLane="end_0" arrivalPos="200.00" arrivalPosLat="0.88" arrivalSpeed="14.74" duration="188.00" routeLength="497.80" waitingTime="124.00" waitingCount="1" stopTime="0.00" timeLoss="157.99" rerouteNo="0" devices="tripinfo_mixed.39" vType="moped" speedFactor="1.40" vaporized=""/>
    <tripinfo id="mixed.42" depart="60.00" departLane="beg_1" departPos="5.10" departPosLat="0.42" departSpeed="0.00" departDelay="18.00" arrival="242.00" arrivalLane="end_1" arrivalPos="200.00" arrivalPosLat="0.70" arrivalSpeed="13.45" duration="182.00" routeLength="494.90" waitingTime="119.00" waitingCount="1" stopTime="0.00" timeLoss="147.09" rerouteNo="0" devices="tripinfo_mixed.42" vType="car" speedFactor="1.05" vaporized=""/>
    <tripinfo id="mixed.43" depart="64.00" departLane="beg_0" departPos="5.10" departPosLat="0.28" departSpeed="0.00" departDelay="21.00" arrival="243.00" arrivalLane="end_1" arrivalPos="200.00" arrivalPosLat="0.70" arrivalSpeed="13.06" duration="179.00" routeLength="494.90" waitingTime="119.00" waitingCount="1" stopTime="0.00" timeLoss="143.12" rerouteNo="0" devices="tripinfo_mixed.43" vType="car" speedFactor="0.99" vaporized=""/>
    <tripinfo id="mixed.38" depart="56.00" departLane="beg_0" departPos="2.20" departPosLat="-1.02" departSpeed="0.00" departDelay="18.00" arrival="244.00" arrivalLane="end_1" arrivalPos="200.00" arrivalPosLat="-1.20" arrivalSpeed="13.94" duration="188.00" routeLength="497.80" waitingTime="121.00" waitingCount="1" stopTime="0.00" timeLoss="151.98" rerouteNo="0" devices="tripinfo_mixed.38" vType="moped" speedFactor="1.01" vaporized=""/>
    <tripinfo id="mixed.25" depart="43.00" departLane="beg_0" departPos="5.10" departPosLat="0.09" departSpeed="0.00" departDelay="18.00" arrival="245.00" arrivalLane="end_0" arrivalPos="200.00" arrivalPosLat="-0.70" arrivalSpeed="11.82" duration="202.00" routeLength="494.90" waitingTime="134.00" waitingCount="1" stopTime="0.00" timeLoss="163.20" rerouteNo="0" devices="tripinfo_mixed.25" vType="car" speedFactor="0.94" vaporized=""/>
    <tripinfo id="mixed.44" depart="63.00" departLane="beg_1" departPos="2.20" departPosLat="-0.48" departSpeed="0.00" departDelay="19.00" arrival="245.00" arrivalLane="end_1" arrivalPos="200.00" arrivalPosLat="-0.56" arrivalSpeed="15.57" duration="182.00" routeLength="497.80" waitingTime="118.00" waitingCount="1" stopTime="0.00" timeLoss="151.56" rerouteNo="0" devices="tripinfo_mixed.44" vType="moped" speedFactor="1.48" vaporized=""/>
    <tripinfo id="mixed.16" depart="20.00" departLane="beg_0" departPos="2.20" departPosLat="0.39" departSpeed="0.00" departDelay="4.00" arrival="247.00" arrivalLane="end_0" arrivalPos="200.00" arrivalPosLat="-1.20" arrivalSpeed="7.39" duration="227.00" routeLength="497.80" waitingTime="138.00" waitingCount="2" stopTime="0.00" timeLoss="162.64" rerouteNo="0" devices="tripinfo_mixed.16" vType="moped" speedFactor="0.56" vaporized=""/>
    <tripinfo id="mixed.50" depart="67.00" departLane="beg_0" departPos="5.10" departPosLat="-0.23" departSpeed="0.00" departDelay="17.00" arrival="247.00" arrivalLane="end_1" arrivalPos="200.00" arrivalPosLat="-0.10" arrivalSpeed="14.37" duration="180.00" routeLength="494.90" waitingTime="117.00" waitingCount="1" stopTime="0.00" timeLoss="145.35" rerouteNo="0" devices="tripinfo_mixed.50" vType="car" speedFactor="1.04" vaporized=""/>
    <tripinfo id="mixed.27" depart="45.00" departLane="beg_1" departPos="2.20" departPosLat="-0.35" departSpeed="0.00" departDelay="18.00" arrival="248.00" arrivalLane="end_0" arrivalPos="200.00" arrivalPosLat="0.60" arrivalSpeed="10.02" duration="203.00" routeLength="497.80" waitingTime="132.00" waitingCount="1" stopTime="0.00" timeLoss="155.09" rerouteNo="0" devices="tripinfo_mixed.27" vType="moped" speedFactor="0.76" vaporized=""/>
    <tripinfo id="mixed.37" depart="56.00" departLane="beg_0" departPos="2.20" departPosLat="0.72" departSpeed="0.00" departDelay="19.00" arrival="249.00" arrivalLane="end_0" arrivalPos="200.00" arrivalPosLat="0.60" arrivalSpeed="11.01" duration="193.00" routeLength="497.80" waitingTime="127.00" waitingCount="1" stopTime="0.00" timeLoss="162.71" rerouteNo="0" devices="tripinfo_mixed.37" vType="moped" speedFactor="1.19" vaporized=""/>
    <tripinfo id="mixed.54" depart="75.00" departLane="beg_1" departPos="5.10" departPosLat="0.59" departSpeed="0.00" departDelay="21.00" arrival="249.00" arrivalLane="end_1" arrivalPos="200.00" arrivalPosLat="-0.64" arrivalSpeed="14.49" duration="174.00" routeLength="494.90" waitingTime="110.00" waitingCount="1" stopTime="0.00" timeLoss="139.72" rerouteNo="0" devices="tripinfo_mixed.54" vType="car" speedFactor="1.06" vaporized=""/>
    <tripinfo id="mixed.51" depart="71.00" departLane="beg_1" departPos="2.20" departPosLat="1.11" departSpeed="0.00" departDelay="20.00" arrival="250.00" arrivalLane="end_1" arrivalPos="200.00" arrivalPosLat="0.72" arrivalSpeed="9.73" duration="179.00" routeLength="497.80" waitingTime="109.00" waitingCount="1" stopTime="0.00" timeLoss="128.39" rerouteNo="0" devices="tripinfo_mixed.51" vType="moped" speedFactor="0.71" vaporized=""/>
    <tripinfo id="mixed.53" depart="74.00" departLane="beg_0" departPos="5.10" departPosLat="-0.66" departSpeed="0.00" departDelay="21.00" arrival="250.00" arrivalLane="end_1" arrivalPos="200.00" arrivalPosLat="-0.64" arrivalSpeed="16.38" duration="176.00" routeLength="494.90" waitingTime="110.00" waitingCount="1" stopTime="0.00" timeLoss="146.91" rerouteNo="0" devices="tripinfo_mixed.53" vType="car" speedFactor="1.24" vaporized=""/>
    <tripinfo id="mixed.35" depart="50.00" departLane="beg_1" departPos="2.20" departPosLat="0.99" departSpeed="0.00" departDelay="15.00" arrival="251.00" arrivalLane="end_0" arrivalPos="200.00" arrivalPosLat="-0.40" arrivalSpeed="11.40" duration="201.00" routeLength="497.80" waitingTime="131.00" waitingCount="2" stopTime="0.00" timeLoss="170.56" rerouteNo="0" devices="tripinfo_mixed.35" vType="moped" speedFactor="1.25" vaporized=""/>
    <tripinfo id="mixed.47" depart="64.00" departLane="beg_1" departPos="2.20" departPosLat="0.43" departSpeed="0.00" departDelay="17.00" arrival="252.00" arrivalLane="end_0" arrivalPos="200.00" arrivalPosLat="0.72" arrivalSpeed="11.63" duration="188.00" routeLength="497.80" waitingTime="117.00" waitingCount="2" stopTime="0.00" timeLoss="144.56" rerouteNo="0" devices="tripinfo_mixed.47" vType="moped" speedFactor="0.84" vaporized=""/>
    <tripinfo id="mixed.59" depart="78.00" departLane="beg_1" departPos="2.20" departPosLat="-0.49" departSpeed="0.00" departDelay="19.00" arrival="252.00" arrivalLane="end_1" arrivalPos="200.00" arrivalPosLat="0.20" arrivalSpeed="10.80" duration="174.00" routeLength="497.80" waitingTime="107.00" waitingCount="1" stopTime="0.00" timeLoss="143.62" rerouteNo="0" devices="tripinfo_mixed.59" vType="moped" speedFactor="1.33" vaporized=""/>
    <tripinfo id="mixed.65" depart="92.00" departLane="beg_0" departPos="2.20" departPosLat="-0.95" departSpeed="0.00" departDelay="27.00" arrival="253.00" arrivalLane="end_1" arrivalPos="200.00" arrivalPosLat="1.20" arrivalSpeed="11.13" duration="161.00" routeLength="497.80" waitingTime="95.00" waitingCount="1" stopTime="0.00" timeLoss="130.90" rerouteNo="0" devices="tripinfo_mixed.65" vType="moped" speedFactor="1.21" vaporized=""/>
    <tripinfo id="mixed.72" depart="96.00" departLane="beg_1" departPos="2.20" departPosLat="-0.72" departSpeed="0.00" departDelay="24.00" arrival="253.00" arrivalLane="end_1" arrivalPos="200.00" arrivalPosLat="-1.20" arrivalSpeed="11.58" duration="157.00" routeLength="497.80" waitingTime="94.00" waitingCount="1" stopTime="0.00" timeLoss="115.80" rerouteNo="0" devices="tripinfo_mixed.72" vType="moped" speedFactor="0.87" vaporized=""/>
    <tripinfo id="mixed.45" depart="67.00" departLane="beg_1" departPos="2.20" departPosLat="0.16" departSpeed="0.00" departDelay="22.00" arrival="255.00" arrivalLane="end_0" arrivalPos="200.00" arrivalPosLat="0.60" arrivalSpeed="13.42" duration="188.00" routeLength="497.80" waitingTime="114.00" waitingCount="2" stopTime="0.00" timeLoss="151.36" rerouteNo="0" devices="tripinfo_mixed.45" vType="moped" speedFactor="0.99" vaporized=""/>
    <tripinfo id="mixed.60" depart="76.00" departLane="beg_0" departPos="2.20" departPosLat="-0.63" departSpeed="0.00" departDelay="16.00" arrival="255.00" arrivalLane="end_1" arrivalPos="200.00" arrivalPosLat="-0.96" arrivalSpeed="12.35" duration="179.00" routeLength="497.80" waitingTime="114.00" waitingCount="1" stopTime="0.00" timeLoss="138.94" rerouteNo="0" devices="tripinfo_mixed.60" vType="moped" speedFactor="0.90" vaporized=""/>
    <tripinfo id="mixed.71" depart="96.00" departLane="beg_1" departPos="2.20" departPosLat="0.95" departSpeed="0.00" departDelay="25.00" arrival="255.00" arrivalLane="end_1" arrivalPos="200.00" arrivalPosLat="0.20" arrivalSpeed="12.03" duration="159.00" routeLength="497.80" waitingTime="94.00" waitingCount="1" stopTime="0.00" timeLoss="128.48" rerouteNo="0" devices="tripinfo_mixed.71" vType="moped" speedFactor="1.58" vaporized=""/>
    <tripinfo id="mixed.62" depart="91.00" departLane="beg_1" departPos="5.10" departPosLat="0.63" departSpeed="0.00" departDelay="29.00" arrival="256.00" arrivalLane="end_1" arrivalPos="200.00" arrivalPosLat="0.70" arrivalSpeed="13.04" duration="165.00" routeLength="494.90" waitingTime="100.00" waitingCount="2" stopTime="0.00" timeLoss="129.67" rerouteNo="0" devices="tripinfo_mixed.62" vType="car" speedFactor="1.01" vaporized=""/>
    <tripinfo id="mixed.1" depart="1.00" departLane="beg_1" departPos="2.20" departPosLat="-0.02" departSpeed="0.00" departDelay="0.00" arrival="257.00" arrivalLane="end_0" arrivalPos="200.00" arrivalPosLat="-1.20" arrivalSpeed="4.44" duration="256.00" routeLength="497.80" waitingTime="141.00" waitingCount="1" stopTime="0.00" timeLoss="155.36" rerouteNo="0" devices="tripinfo_mixed.1" vType="moped" speedFactor="0.36" vaporized=""/>
    <tripinfo id="mixed.49" depart="70.00" departLane="beg_0" departPos="2.20" departPosLat="-0.95" departSpeed="0.00" departDelay="21.00" arrival="258.00" arrivalLane="end_0" arrivalPos="200.00" arrivalPosLat="0.68" arrivalSpeed="10.84" duration="188.00" routeLength="497.80" waitingTime="114.00" waitingCount="1" stopTime="0.00" timeLoss="141.92" rerouteNo="0" devices="tripinfo_mixed.49" vType="moped" speedFactor="0.79" vaporized=""/>
    <tripinfo id="mixed.73" depart="101.00" departLane="beg_1" departPos="5.10" departPosLat="-0.42" departSpeed="0.00" departDelay="28.00" arrival="258.00" arrivalLane="end_1" arrivalPos="200.00" arrivalPosLat="-0.70" arrivalSpeed="11.52" duration="157.00" routeLength="494.90" waitingTime="90.00" waitingCount="1" stopTime="0.00" timeLoss="117.07" rerouteNo="0" devices="tripinfo_mixed.73" vType="car" speedFactor="0.90" vaporized=""/>
    <tripinfo id="mixed.40" depart="60.00" departLane="beg_0" departPos="2.20" departPosLat="0.36" departSpeed="0.00" departDelay="20.00" arrival="259.00" arrivalLane="end_0" arrivalPos="200.00" arrivalPosLat="-1.20" arrivalSpeed="6.74" duration="199.00" routeLength="497.80" waitingTime="115.00" waitingCount="1" stopTime="0.00" timeLoss="138.35" rerouteNo="0" devices="tripinfo_mixed.40" vType="moped" speedFactor="0.60" vaporized=""/>
    <tripinfo id="mixed.74" depart="103.00" departLane="beg_1" departPos="2.20" departPosLat="1.20" departSpeed="0.00" departDelay="29.00" arrival="259.00" arrivalLane="end_1" arrivalPos="200.00" arrivalPosLat="1.20" arrivalSpeed="16.64" duration="156.00" routeLength="497.80" waitingTime="90.00" waitingCount="1" stopTime="0.00" timeLoss="125.46" rerouteNo="0" devices="tripinfo_mixed.74" vType="moped" speedFactor="1.29" vaporized=""/>
    <tripinfo id="mixed.75" depart="104.00" departLane="beg_0" departPos="2.20" departPosLat="0.54" departSpeed="0.00" departDelay="29.00" arrival="260.00" arrivalLane="end_1" arrivalPos="200.00" arrivalPosLat="0.68" arrivalSpeed="13.24" duration="156.00" routeLength="497.80" waitingTime="89.00" waitingCount="1" stopTime="0.00" timeLoss="125.62" rerouteNo="0" devices="tripinfo_mixed.75" vType="moped" speedFactor="1.30" vaporized=""/>
    <tripinfo id="mixed.48" depart="68.00" departLane="beg_1" departPos="2.20" departPosLat="-1.16" departSpeed="0.00" departDelay="20.00" arrival="262.00" arrivalLane="end_0" arrivalPos="200.00" arrivalPosLat="-1.20" arrivalSpeed="8.47" duration="194.00" routeLength="497.80" waitingTime="114.00" waitingCount="1" stopTime="0.00" timeLoss="136.74" rerouteNo="0" devices="tripinfo_mixed.48" vType="moped" speedFactor="0.63" vaporized=""/>
    <tripinfo id="mixed.52" depart="82.00" departLane="beg_1" departPos="5.10" departPosLat="0.16" departSpeed="0.00" departDelay="30.00" arrival="262.00" arrivalLane="end_0" arrivalPos="200.00" arrivalPosLat="1.60" arrivalSpeed="15.29" duration="180.00" routeLength="494.90" waitingTime="110.00" waitingCount="1" stopTime="0.00" timeLoss="147.86" rerouteNo="0" devices="tripinfo_mixed.52" vType="car" speedFactor="1.11" vaporized=""/>
    <tripinfo id="mixed.76" depart="109.00" departLane="beg_1" departPos="5.10" departPosLat="0.60" departSpeed="0.00" departDelay="33.00" arrival="262.00" arrivalLane="end_1" arrivalPos="200.00" arrivalPosLat="0.70" arrivalSpeed="14.49" duration="153.00" routeLength="494.90" waitingTime="89.00" waitingCount="1" stopTime="0.00" timeLoss="118.93" rerouteNo="0" devices="tripinfo_mixed.76" vType="car" speedFactor="1.07" vaporized=""/>
    <tripinfo id="mixed.78" depart="108.00" departLane="beg_1" departPos="2.20" departPosLat="-0.70" departSpeed="0.00" departDelay="30.00" arrival="263.00" arrivalLane="end_1" arrivalPos="200.00" arrivalPosLat="0.68" arrivalSpeed="14.26" duration="155.00" routeLength="497.80" waitingTime="89.00" waitingCount="1" stopTime="0.00" timeLoss="124.98" rerouteNo="0" devices="tripinfo_mixed.78" vType="moped" speedFactor="1.26" vaporized=""/>
    <tripinfo id="mixed.56" depart="81.00" departLane="beg_0" departPos="5.10" departPosLat="0.14" departSpeed="0.00" departDelay="25.00" arrival="264.00" arrivalLane="end_1" arrivalPos="200.00" arrivalPosLat="-1.38" arrivalSpeed="16.25" duration="183.00" routeLength="494.90" waitingTime="104.00" waitingCount="1" stopTime="0.00" timeLoss="152.20" rerouteNo="0" devices="tripinfo_mixed.56" vType="car" speedFactor="1.17" vaporized=""/>
    <tripinfo id="mixed.87" depart="125.00" departLane="beg_1" departPos="2.20" departPosLat="0.98" departSpeed="0.00" departDelay="38.00" arrival="265.00" arrivalLane="end_1" arrivalPos="200.00" arrivalPosLat="-1.20" arrivalSpeed="12.55" duration="140.00" routeLength="497.80" waitingTime="73.00" waitingCount="1" stopTime="0.00" timeLoss="100.51" rerouteNo="0" devices="tripinfo_mixed.87" vType="moped" speedFactor="0.91" vaporized=""/>
    <tripinfo id="mixed.63" depart="88.00" departLane="beg_1" departPos="2.20" departPosLat="-0.50" departSpeed="0.00" departDelay="25.00" arrival="267.00" arrivalLane="end_0" arrivalPos="200.00" arrivalPosLat="0.68" arrivalSpeed="10.50" duration="179.00" routeLength="497.80" waitingTime="95.00" waitingCount="3" stopTime="0.00" timeLoss="132.15" rerouteNo="0" devices="tripinfo_mixed.63" vType="moped" speedFactor="0.77" vaporized=""/>
    <tripinfo id="mixed.89" depart="125.00" departLane="beg_1" departPos="2.20" departPosLat="-0.71" departSpeed="0.00" departDelay="36.00" arrival="267.00" arrivalLane="end_1" arrivalPos="200.00" arrivalPosLat="0.08" arrivalSpeed="14.87" duration="142.00" routeLength="497.80" waitingTime="75.00" waitingCount="2" stopTime="0.00" timeLoss="109.45" rerouteNo="0" devices="tripinfo_mixed.89" vType="moped" speedFactor="1.13" vaporized=""/>
    <tripinfo id="mixed.84" depart="111.00" departLane="beg_1" departPos="2.20" departPosLat="0.25" departSpeed="0.00" departDelay="27.00" arrival="268.00" arrivalLane="end_1" arrivalPos="200.00" arrivalPosLat="0.68" arrivalSpeed="14.56" duration="157.00" routeLength="497.80" waitingTime="88.00" waitingCount="1" stopTime="0.00" timeLoss="126.70" rerouteNo="0" devices="tripinfo_mixed.84" vType="moped" speedFactor="1.71" vaporized=""/>
    <tripinfo id="mixed.2" depart="5.00" departLane="beg_1" departPos="2.20" departPosLat="0.16" departSpeed="0.00" departDelay="3.00" arrival="269.00" arrivalLane="end_0" arrivalPos="200.00" arrivalPosLat="-1.20" arrivalSpeed="4.07" duration="264.00" routeLength="497.80" waitingTime="136.00" waitingCount="1" stopTime="0.00" timeLoss="152.93" rerouteNo="0" devices="tripinfo_mixed.2" vType="moped" speedFactor="0.32" vaporized=""/>