<?xml version="1.0"?>

<!-- generated on 03/18/10 13:31:16 by SUMO sumo Version dev-SVN-r8460
<configuration>

    <input>
        <net-file value="net.net.xml"/>
        <additional-files value="input_routes.rou.xml,input_additional.add.xml"/>
    </input>

    <output>
        <netstate-dump value="rawdump.xml"/>
    </output>

    <time>
        <begin value="0"/>
        <end value="1"/>
    </time>

    <report>
        <no-duration-log value="true"/>
        <no-step-log value="true"/>
    </report>

</configuration>
-->

<sumo-netstate>
    <timestep time="0.00">
        <edge id="beg">
            <lane id="beg_0">
                <vehicle id="f1.0" pos="0.00" speed="0.00"/>
            </lane>
            <lane id="beg_1"/>
            <lane id="beg_2"/>
        </edge>
    </timestep>
</sumo-netstate>
