<?xml version="1.0" encoding="UTF-8"?>

<!-- generated on Wed Feb 19 22:17:33 2020 by Eclipse SUMO Version v1_5_0+0174-0b4d252505
This data file and the accompanying materials
are made available under the terms of the Eclipse Public License v2.0
which accompanies this distribution, and is available at
http://www.eclipse.org/legal/epl-v20.html
SPDX-License-Identifier: EPL-2.0
<configuration xmlns:xsi="http://www.w3.org/2001/XMLSchema-instance" xsi:noNamespaceSchemaLocation="http://sumo.dlr.de/xsd/sumoConfiguration.xsd">

    <input>
        <net-file value="motorway.net.xml"/>
        <additional-files value="input_routes.rou.xml"/>
    </input>

    <output>
        <write-license value="true"/>
        <fcd-output value="fcd.xml"/>
        <fcd-output.acceleration value="true"/>
    </output>

    <processing>
        <default.speeddev value="0"/>
        <pedestrian.model value="nonInteracting"/>
    </processing>

    <report>
        <xml-validation value="never"/>
        <duration-log.disable value="true"/>
        <no-step-log value="true"/>
    </report>

    <mesoscopic>
        <mesosim value="true"/>
    </mesoscopic>

</configuration>
-->

<fcd-export xmlns:xsi="http://www.w3.org/2001/XMLSchema-instance" xsi:noNamespaceSchemaLocation="http://sumo.dlr.de/xsd/fcd_file.xsd">
    <timestep time="0.00">
        <vehicle id="v0" x="-300.00" y="-50.00" angle="80.54" type="t1" speed="36.00" pos="0.00" edge="onRamp" slope="0.00"/>
    </timestep>
    <timestep time="1.00">
        <vehicle id="v0" x="-300.00" y="-50.00" angle="80.54" type="t1" speed="36.00" pos="0.00" edge="onRamp" slope="0.00"/>
    </timestep>
    <timestep time="2.00">
        <vehicle id="v0" x="-300.00" y="-50.00" angle="80.54" type="t1" speed="36.00" pos="0.00" edge="onRamp" slope="0.00"/>
    </timestep>
    <timestep time="3.00">
        <vehicle id="v0" x="-201.45" y="-33.58" angle="80.54" type="t1" speed="36.00" pos="99.91" edge="onRamp" slope="0.00"/>
    </timestep>
    <timestep time="4.00">
        <vehicle id="v0" x="-201.45" y="-33.58" angle="80.54" type="t1" speed="36.00" pos="99.91" edge="onRamp" slope="0.00"/>
    </timestep>
    <timestep time="5.00">
        <vehicle id="v0" x="-201.45" y="-33.58" angle="80.54" type="t1" speed="36.00" pos="99.91" edge="onRamp" slope="0.00"/>
    </timestep>
    <timestep time="6.00">
        <vehicle id="v0" x="-102.90" y="-17.15" angle="80.54" type="t1" speed="36.00" pos="199.81" edge="onRamp" slope="0.00"/>
    </timestep>
    <timestep time="7.00">
        <vehicle id="v0" x="-102.90" y="-17.15" angle="80.54" type="t1" speed="36.00" pos="199.81" edge="onRamp" slope="0.00"/>
    </timestep>
    <timestep time="8.00">
        <vehicle id="v0" x="-102.90" y="-17.15" angle="80.54" type="t1" speed="36.00" pos="199.81" edge="onRamp" slope="0.00"/>
    </timestep>
    <timestep time="9.00">
        <vehicle id="v0" x="4.00" y="-4.80" angle="90.00" type="t1" speed="35.99" pos="0.00" edge="merge" slope="0.00"/>
    </timestep>
    <timestep time="10.00">
        <vehicle id="v0" x="4.00" y="-4.80" angle="90.00" type="t1" speed="35.99" pos="0.00" edge="merge" slope="0.00"/>
    </timestep>
    <timestep time="11.00">
        <vehicle id="v0" x="104.00" y="-1.60" angle="90.00" type="t1" speed="36.00" pos="0.00" edge="end" slope="0.00"/>
    </timestep>
    <timestep time="12.00">
        <vehicle id="v0" x="104.00" y="-1.60" angle="90.00" type="t1" speed="36.00" pos="0.00" edge="end" slope="0.00"/>
    </timestep>
    <timestep time="13.00">
        <vehicle id="v0" x="104.00" y="-1.60" angle="90.00" type="t1" speed="36.00" pos="0.00" edge="end" slope="0.00"/>
    </timestep>
    <timestep time="14.00">
        <vehicle id="v0" x="200.00" y="-1.60" angle="90.00" type="t1" speed="36.00" pos="96.00" edge="end" slope="0.00"/>
    </timestep>
    <timestep time="15.00">
        <vehicle id="v0" x="200.00" y="-1.60" angle="90.00" type="t1" speed="36.00" pos="96.00" edge="end" slope="0.00"/>
    </timestep>
    <timestep time="16.00">
        <vehicle id="v0" x="200.00" y="-1.60" angle="90.00" type="t1" speed="36.00" pos="96.00" edge="end" slope="0.00"/>
    </timestep>
    <timestep time="17.00">
        <vehicle id="v0" x="304.00" y="0.00" angle="90.00" type="t1" speed="35.99" pos="0.00" edge="end2" slope="0.00"/>
    </timestep>
    <timestep time="18.00">
        <vehicle id="v0" x="304.00" y="0.00" angle="90.00" type="t1" speed="35.99" pos="0.00" edge="end2" slope="0.00"/>
    </timestep>
    <timestep time="19.00">
        <vehicle id="v0" x="400.65" y="0.00" angle="90.00" type="t1" speed="35.99" pos="96.65" edge="end2" slope="0.00"/>
    </timestep>
    <timestep time="20.00">
        <vehicle id="v0" x="400.65" y="0.00" angle="90.00" type="t1" speed="35.99" pos="96.65" edge="end2" slope="0.00"/>
    </timestep>
    <timestep time="21.00">
        <vehicle id="v0" x="400.65" y="0.00" angle="90.00" type="t1" speed="35.99" pos="96.65" edge="end2" slope="0.00"/>
    </timestep>
    <timestep time="22.00">
        <vehicle id="v0" x="497.29" y="0.00" angle="90.00" type="t1" speed="35.99" pos="193.29" edge="end2" slope="0.00"/>
    </timestep>
    <timestep time="23.00">
        <vehicle id="v0" x="497.29" y="0.00" angle="90.00" type="t1" speed="35.99" pos="193.29" edge="end2" slope="0.00"/>
    </timestep>
    <timestep time="24.00">
        <vehicle id="v0" x="497.29" y="0.00" angle="90.00" type="t1" speed="35.99" pos="193.29" edge="end2" slope="0.00"/>
    </timestep>
    <timestep time="25.00">
        <vehicle id="v0" x="593.94" y="0.00" angle="90.00" type="t1" speed="35.99" pos="289.94" edge="end2" slope="0.00"/>
    </timestep>
    <timestep time="26.00">
        <vehicle id="v0" x="593.94" y="0.00" angle="90.00" type="t1" speed="35.99" pos="289.94" edge="end2" slope="0.00"/>
    </timestep>
    <timestep time="27.00">
        <vehicle id="v0" x="690.58" y="0.00" angle="90.00" type="t1" speed="35.99" pos="386.58" edge="end2" slope="0.00"/>
    </timestep>
    <timestep time="28.00">
        <vehicle id="v0" x="690.58" y="0.00" angle="90.00" type="t1" speed="35.99" pos="386.58" edge="end2" slope="0.00"/>
    </timestep>
    <timestep time="29.00">
        <vehicle id="v0" x="690.58" y="0.00" angle="90.00" type="t1" speed="35.99" pos="386.58" edge="end2" slope="0.00"/>
    </timestep>
    <timestep time="30.00">
        <vehicle id="v0" x="787.23" y="0.00" angle="90.00" type="t1" speed="35.99" pos="483.23" edge="end2" slope="0.00"/>
    </timestep>
    <timestep time="31.00">
        <vehicle id="v0" x="787.23" y="0.00" angle="90.00" type="t1" speed="35.99" pos="483.23" edge="end2" slope="0.00"/>
    </timestep>
    <timestep time="32.00">
        <vehicle id="v0" x="787.23" y="0.00" angle="90.00" type="t1" speed="35.99" pos="483.23" edge="end2" slope="0.00"/>
    </timestep>
    <timestep time="33.00">
        <vehicle id="v0" x="883.87" y="0.00" angle="90.00" type="t1" speed="35.99" pos="579.87" edge="end2" slope="0.00"/>
    </timestep>
    <timestep time="34.00">
        <vehicle id="v0" x="883.87" y="0.00" angle="90.00" type="t1" speed="35.99" pos="579.87" edge="end2" slope="0.00"/>
    </timestep>
    <timestep time="35.00">
        <vehicle id="v0" x="883.87" y="0.00" angle="90.00" type="t1" speed="35.99" pos="579.87" edge="end2" slope="0.00"/>
    </timestep>
    <timestep time="36.00">
        <vehicle id="v0" x="980.52" y="0.00" angle="90.00" type="t1" speed="35.99" pos="676.52" edge="end2" slope="0.00"/>
    </timestep>
    <timestep time="37.00">
        <vehicle id="v0" x="980.52" y="0.00" angle="90.00" type="t1" speed="35.99" pos="676.52" edge="end2" slope="0.00"/>
    </timestep>
    <timestep time="38.00">
        <vehicle id="v0" x="1077.16" y="0.00" angle="90.00" type="t1" speed="35.99" pos="773.16" edge="end2" slope="0.00"/>
    </timestep>
    <timestep time="39.00">
        <vehicle id="v0" x="1077.16" y="0.00" angle="90.00" type="t1" speed="35.99" pos="773.16" edge="end2" slope="0.00"/>
    </timestep>
    <timestep time="40.00">
        <vehicle id="v0" x="1077.16" y="0.00" angle="90.00" type="t1" speed="35.99" pos="773.16" edge="end2" slope="0.00"/>
    </timestep>
    <timestep time="41.00">
        <vehicle id="v0" x="1173.81" y="0.00" angle="90.00" type="t1" speed="35.99" pos="869.81" edge="end2" slope="0.00"/>
    </timestep>
    <timestep time="42.00">
        <vehicle id="v0" x="1173.81" y="0.00" angle="90.00" type="t1" speed="35.99" pos="869.81" edge="end2" slope="0.00"/>
    </timestep>
    <timestep time="43.00">
        <vehicle id="v0" x="1173.81" y="0.00" angle="90.00" type="t1" speed="35.99" pos="869.81" edge="end2" slope="0.00"/>
    </timestep>
    <timestep time="44.00">
        <vehicle id="v0" x="1270.45" y="0.00" angle="90.00" type="t1" speed="35.99" pos="966.45" edge="end2" slope="0.00"/>
    </timestep>
    <timestep time="45.00">
        <vehicle id="v0" x="1270.45" y="0.00" angle="90.00" type="t1" speed="35.99" pos="966.45" edge="end2" slope="0.00"/>
    </timestep>
    <timestep time="46.00">
        <vehicle id="v0" x="1367.10" y="0.00" angle="90.00" type="t1" speed="35.99" pos="1063.10" edge="end2" slope="0.00"/>
    </timestep>
    <timestep time="47.00">
        <vehicle id="v0" x="1367.10" y="0.00" angle="90.00" type="t1" speed="35.99" pos="1063.10" edge="end2" slope="0.00"/>
    </timestep>
    <timestep time="48.00">
        <vehicle id="v0" x="1367.10" y="0.00" angle="90.00" type="t1" speed="35.99" pos="1063.10" edge="end2" slope="0.00"/>
    </timestep>
    <timestep time="49.00">
        <vehicle id="v0" x="1463.74" y="0.00" angle="90.00" type="t1" speed="35.99" pos="1159.74" edge="end2" slope="0.00"/>
    </timestep>
    <timestep time="50.00">
        <vehicle id="v0" x="1463.74" y="0.00" angle="90.00" type="t1" speed="35.99" pos="1159.74" edge="end2" slope="0.00"/>
    </timestep>
    <timestep time="51.00">
        <vehicle id="v0" x="1463.74" y="0.00" angle="90.00" type="t1" speed="35.99" pos="1159.74" edge="end2" slope="0.00"/>
    </timestep>
    <timestep time="52.00">
        <vehicle id="v0" x="1560.39" y="0.00" angle="90.00" type="t1" speed="35.99" pos="1256.39" edge="end2" slope="0.00"/>
    </timestep>
    <timestep time="53.00">
        <vehicle id="v0" x="1560.39" y="0.00" angle="90.00" type="t1" speed="35.99" pos="1256.39" edge="end2" slope="0.00"/>
    </timestep>
    <timestep time="54.00">
        <vehicle id="v0" x="1657.03" y="0.00" angle="90.00" type="t1" speed="35.99" pos="1353.03" edge="end2" slope="0.00"/>
    </timestep>
    <timestep time="55.00">
        <vehicle id="v0" x="1657.03" y="0.00" angle="90.00" type="t1" speed="35.99" pos="1353.03" edge="end2" slope="0.00"/>
    </timestep>
    <timestep time="56.00">
        <vehicle id="v0" x="1657.03" y="0.00" angle="90.00" type="t1" speed="35.99" pos="1353.03" edge="end2" slope="0.00"/>
    </timestep>
    <timestep time="57.00">
        <vehicle id="v0" x="1753.68" y="0.00" angle="90.00" type="t1" speed="35.99" pos="1449.68" edge="end2" slope="0.00"/>
    </timestep>
    <timestep time="58.00">
        <vehicle id="v0" x="1753.68" y="0.00" angle="90.00" type="t1" speed="35.99" pos="1449.68" edge="end2" slope="0.00"/>
    </timestep>
    <timestep time="59.00">
        <vehicle id="v0" x="1753.68" y="0.00" angle="90.00" type="t1" speed="35.99" pos="1449.68" edge="end2" slope="0.00"/>
    </timestep>
    <timestep time="60.00">
        <vehicle id="v0" x="1850.32" y="0.00" angle="90.00" type="t1" speed="35.99" pos="1546.32" edge="end2" slope="0.00"/>
    </timestep>
    <timestep time="61.00">
        <vehicle id="v0" x="1850.32" y="0.00" angle="90.00" type="t1" speed="35.99" pos="1546.32" edge="end2" slope="0.00"/>
    </timestep>
    <timestep time="62.00">
        <vehicle id="v0" x="1946.97" y="0.00" angle="90.00" type="t1" speed="35.99" pos="1642.97" edge="end2" slope="0.00"/>
    </timestep>
    <timestep time="63.00">
        <vehicle id="v0" x="1946.97" y="0.00" angle="90.00" type="t1" speed="35.99" pos="1642.97" edge="end2" slope="0.00"/>
    </timestep>
    <timestep time="64.00">
        <vehicle id="v0" x="1946.97" y="0.00" angle="90.00" type="t1" speed="35.99" pos="1642.97" edge="end2" slope="0.00"/>
    </timestep>
    <timestep time="65.00">
        <vehicle id="v0" x="2043.61" y="0.00" angle="90.00" type="t1" speed="35.99" pos="1739.61" edge="end2" slope="0.00"/>
    </timestep>
    <timestep time="66.00">
        <vehicle id="v0" x="2043.61" y="0.00" angle="90.00" type="t1" speed="35.99" pos="1739.61" edge="end2" slope="0.00"/>
    </timestep>
    <timestep time="67.00">
        <vehicle id="v0" x="2043.61" y="0.00" angle="90.00" type="t1" speed="35.99" pos="1739.61" edge="end2" slope="0.00"/>
    </timestep>
    <timestep time="68.00">
        <vehicle id="v0" x="2140.26" y="0.00" angle="90.00" type="t1" speed="35.99" pos="1836.26" edge="end2" slope="0.00"/>
    </timestep>
    <timestep time="69.00">
        <vehicle id="v0" x="2140.26" y="0.00" angle="90.00" type="t1" speed="35.99" pos="1836.26" edge="end2" slope="0.00"/>
    </timestep>
    <timestep time="70.00">
        <vehicle id="v0" x="2236.90" y="0.00" angle="90.00" type="t1" speed="35.99" pos="1932.90" edge="end2" slope="0.00"/>
    </timestep>
    <timestep time="71.00">
        <vehicle id="v0" x="2236.90" y="0.00" angle="90.00" type="t1" speed="35.99" pos="1932.90" edge="end2" slope="0.00"/>
    </timestep>
    <timestep time="72.00">
        <vehicle id="v0" x="2236.90" y="0.00" angle="90.00" type="t1" speed="35.99" pos="1932.90" edge="end2" slope="0.00"/>
    </timestep>
    <timestep time="73.00">
        <vehicle id="v0" x="2333.55" y="0.00" angle="90.00" type="t1" speed="35.99" pos="2029.55" edge="end2" slope="0.00"/>
    </timestep>
    <timestep time="74.00">
        <vehicle id="v0" x="2333.55" y="0.00" angle="90.00" type="t1" speed="35.99" pos="2029.55" edge="end2" slope="0.00"/>
    </timestep>
    <timestep time="75.00">
        <vehicle id="v0" x="2333.55" y="0.00" angle="90.00" type="t1" speed="35.99" pos="2029.55" edge="end2" slope="0.00"/>
    </timestep>
    <timestep time="76.00">
        <vehicle id="v0" x="2430.19" y="0.00" angle="90.00" type="t1" speed="35.99" pos="2126.19" edge="end2" slope="0.00"/>
    </timestep>
    <timestep time="77.00">
        <vehicle id="v0" x="2430.19" y="0.00" angle="90.00" type="t1" speed="35.99" pos="2126.19" edge="end2" slope="0.00"/>
    </timestep>
    <timestep time="78.00">
        <vehicle id="v0" x="2526.84" y="0.00" angle="90.00" type="t1" speed="35.99" pos="2222.84" edge="end2" slope="0.00"/>
    </timestep>
    <timestep time="79.00">
        <vehicle id="v0" x="2526.84" y="0.00" angle="90.00" type="t1" speed="35.99" pos="2222.84" edge="end2" slope="0.00"/>
    </timestep>
    <timestep time="80.00">
        <vehicle id="v0" x="2526.84" y="0.00" angle="90.00" type="t1" speed="35.99" pos="2222.84" edge="end2" slope="0.00"/>
    </timestep>
    <timestep time="81.00">
        <vehicle id="v0" x="2623.48" y="0.00" angle="90.00" type="t1" speed="35.99" pos="2319.48" edge="end2" slope="0.00"/>
    </timestep>
    <timestep time="82.00">
        <vehicle id="v0" x="2623.48" y="0.00" angle="90.00" type="t1" speed="35.99" pos="2319.48" edge="end2" slope="0.00"/>
    </timestep>
    <timestep time="83.00">
        <vehicle id="v0" x="2623.48" y="0.00" angle="90.00" type="t1" speed="35.99" pos="2319.48" edge="end2" slope="0.00"/>
    </timestep>
    <timestep time="84.00">
        <vehicle id="v0" x="2720.13" y="0.00" angle="90.00" type="t1" speed="35.99" pos="2416.13" edge="end2" slope="0.00"/>
    </timestep>
    <timestep time="85.00">
        <vehicle id="v0" x="2720.13" y="0.00" angle="90.00" type="t1" speed="35.99" pos="2416.13" edge="end2" slope="0.00"/>
    </timestep>
    <timestep time="86.00">
        <vehicle id="v0" x="2720.13" y="0.00" angle="90.00" type="t1" speed="35.99" pos="2416.13" edge="end2" slope="0.00"/>
    </timestep>
    <timestep time="87.00">
        <vehicle id="v0" x="2816.77" y="0.00" angle="90.00" type="t1" speed="35.99" pos="2512.77" edge="end2" slope="0.00"/>
    </timestep>
    <timestep time="88.00">
        <vehicle id="v0" x="2816.77" y="0.00" angle="90.00" type="t1" speed="35.99" pos="2512.77" edge="end2" slope="0.00"/>
    </timestep>
    <timestep time="89.00">
        <vehicle id="v0" x="2913.42" y="0.00" angle="90.00" type="t1" speed="35.99" pos="2609.42" edge="end2" slope="0.00"/>
    </timestep>
    <timestep time="90.00">
        <vehicle id="v0" x="2913.42" y="0.00" angle="90.00" type="t1" speed="35.99" pos="2609.42" edge="end2" slope="0.00"/>
    </timestep>
    <timestep time="91.00">
        <vehicle id="v0" x="2913.42" y="0.00" angle="90.00" type="t1" speed="35.99" pos="2609.42" edge="end2" slope="0.00"/>
    </timestep>
    <timestep time="92.00">
        <vehicle id="v0" x="3010.06" y="0.00" angle="90.00" type="t1" speed="35.99" pos="2706.06" edge="end2" slope="0.00"/>
    </timestep>
    <timestep time="93.00">
        <vehicle id="v0" x="3010.06" y="0.00" angle="90.00" type="t1" speed="35.99" pos="2706.06" edge="end2" slope="0.00"/>
    </timestep>
    <timestep time="94.00">
        <vehicle id="v0" x="3010.06" y="0.00" angle="90.00" type="t1" speed="35.99" pos="2706.06" edge="end2" slope="0.00"/>
    </timestep>
    <timestep time="95.00">
        <vehicle id="v0" x="3106.71" y="0.00" angle="90.00" type="t1" speed="35.99" pos="2802.71" edge="end2" slope="0.00"/>
    </timestep>
    <timestep time="96.00">
        <vehicle id="v0" x="3106.71" y="0.00" angle="90.00" type="t1" speed="35.99" pos="2802.71" edge="end2" slope="0.00"/>
    </timestep>
    <timestep time="97.00">
        <vehicle id="v0" x="3203.35" y="0.00" angle="90.00" type="t1" speed="35.99" pos="2899.35" edge="end2" slope="0.00"/>
    </timestep>
    <timestep time="98.00">
        <vehicle id="v0" x="3203.35" y="0.00" angle="90.00" type="t1" speed="35.99" pos="2899.35" edge="end2" slope="0.00"/>
    </timestep>
    <timestep time="99.00">
        <vehicle id="v0" x="3203.35" y="0.00" angle="90.00" type="t1" speed="35.99" pos="2899.35" edge="end2" slope="0.00"/>
    </timestep>
    <timestep time="100.00">
        <vehicle id="v0" x="3300.00" y="0.00" angle="90.00" type="t1" speed="36.00" pos="0.00" edge="end3" slope="0.00"/>
    </timestep>
    <timestep time="101.00">
        <vehicle id="v0" x="3300.00" y="0.00" angle="90.00" type="t1" speed="36.00" pos="0.00" edge="end3" slope="0.00"/>
    </timestep>
    <timestep time="102.00">
        <vehicle id="v0" x="3300.00" y="0.00" angle="90.00" type="t1" speed="36.00" pos="0.00" edge="end3" slope="0.00"/>
    </timestep>
    <timestep time="103.00">
        <vehicle id="v0" x="3400.00" y="0.00" angle="90.00" type="t1" speed="36.00" pos="100.00" edge="end3" slope="0.00"/>
    </timestep>
    <timestep time="104.00">
        <vehicle id="v0" x="3400.00" y="0.00" angle="90.00" type="t1" speed="36.00" pos="100.00" edge="end3" slope="0.00"/>
    </timestep>
    <timestep time="105.00">
        <vehicle id="v0" x="3400.00" y="0.00" angle="90.00" type="t1" speed="36.00" pos="100.00" edge="end3" slope="0.00"/>
    </timestep>
    <timestep time="106.00"/>
</fcd-export>
