<?xml version="1.0" encoding="UTF-8"?>

<!-- generated on 2022-03-02 10:03:04 by Eclipse SUMO sumo Version v1_12_0+1012-482880e
<configuration xmlns:xsi="http://www.w3.org/2001/XMLSchema-instance" xsi:noNamespaceSchemaLocation="http://sumo.dlr.de/xsd/sumoConfiguration.xsd">

    <input>
        <net-file value="input_net3.net.xml"/>
        <load-state value="state.xml"/>
    </input>

    <output>
        <fcd-output value="fcd2.xml"/>
    </output>

    <report>
        <duration-log.disable value="true"/>
        <no-step-log value="true"/>
    </report>

</configuration>
-->

<fcd-export xmlns:xsi="http://www.w3.org/2001/XMLSchema-instance" xsi:noNamespaceSchemaLocation="http://sumo.dlr.de/xsd/fcd_file.xsd">
    <timestep time="10.00">
        <person id="p0" x="111.78" y="91.44" angle="0.00" speed="1.40" pos="5.67" edge=":C_w2" slope="0.00"/>
    </timestep>
    <timestep time="11.00">
        <person id="p0" x="111.78" y="92.44" angle="0.00" speed="1.00" pos="6.67" edge=":C_w2" slope="0.00"/>
    </timestep>
    <timestep time="12.00">
        <person id="p0" x="111.78" y="92.44" angle="0.00" speed="0.00" pos="6.67" edge=":C_w2" slope="0.00"/>
    </timestep>
    <timestep time="13.00">
        <person id="p0" x="111.78" y="92.60" angle="0.00" speed="0.16" pos="6.83" edge=":C_w2" slope="0.00"/>
    </timestep>
    <timestep time="14.00">
        <person id="p0" x="111.78" y="92.60" angle="0.00" speed="0.00" pos="6.83" edge=":C_w2" slope="0.00"/>
    </timestep>
    <timestep time="15.00">
        <person id="p0" x="111.78" y="92.60" angle="0.00" speed="0.00" pos="6.83" edge=":C_w2" slope="0.00"/>
    </timestep>
    <timestep time="16.00">
        <person id="p0" x="111.78" y="92.60" angle="0.00" speed="0.00" pos="6.83" edge=":C_w2" slope="0.00"/>
    </timestep>
    <timestep time="17.00">
        <person id="p0" x="111.78" y="92.60" angle="0.00" speed="0.00" pos="6.83" edge=":C_w2" slope="0.00"/>
    </timestep>
    <timestep time="18.00">
        <person id="p0" x="111.78" y="92.60" angle="0.00" speed="0.00" pos="6.83" edge=":C_w2" slope="0.00"/>
    </timestep>
    <timestep time="19.00">
        <person id="p0" x="111.78" y="92.60" angle="0.00" speed="0.00" pos="6.83" edge=":C_w2" slope="0.00"/>
    </timestep>
    <timestep time="20.00">
        <person id="p0" x="111.78" y="92.60" angle="0.00" speed="0.00" pos="6.83" edge=":C_w2" slope="0.00"/>
    </timestep>
    <timestep time="21.00">
        <person id="p0" x="111.78" y="92.60" angle="0.00" speed="0.00" pos="6.83" edge=":C_w2" slope="0.00"/>
    </timestep>
    <timestep time="22.00">
        <person id="p0" x="111.78" y="92.60" angle="0.00" speed="0.00" pos="6.83" edge=":C_w2" slope="0.00"/>
    </timestep>
    <timestep time="23.00">
        <person id="p0" x="111.78" y="92.60" angle="0.00" speed="0.00" pos="6.83" edge=":C_w2" slope="0.00"/>
    </timestep>
    <timestep time="24.00">
        <person id="p0" x="111.78" y="92.60" angle="0.00" speed="0.00" pos="6.83" edge=":C_w2" slope="0.00"/>
    </timestep>
    <timestep time="25.00">
        <person id="p0" x="111.78" y="92.60" angle="0.00" speed="0.00" pos="6.83" edge=":C_w2" slope="0.00"/>
    </timestep>
    <timestep time="26.00">
        <person id="p0" x="111.78" y="92.60" angle="0.00" speed="0.00" pos="6.83" edge=":C_w2" slope="0.00"/>
    </timestep>
    <timestep time="27.00">
        <person id="p0" x="111.78" y="92.60" angle="0.00" speed="0.00" pos="6.83" edge=":C_w2" slope="0.00"/>
    </timestep>
    <timestep time="28.00">
        <person id="p0" x="111.78" y="92.60" angle="0.00" speed="0.00" pos="6.83" edge=":C_w2" slope="0.00"/>
    </timestep>
    <timestep time="29.00">
        <person id="p0" x="111.78" y="92.60" angle="0.00" speed="0.00" pos="6.83" edge=":C_w2" slope="0.00"/>
    </timestep>
    <timestep time="30.00">
        <person id="p0" x="111.78" y="92.60" angle="0.00" speed="0.00" pos="6.83" edge=":C_w2" slope="0.00"/>
    </timestep>
    <timestep time="31.00">
        <person id="p0" x="111.78" y="92.60" angle="0.00" speed="0.00" pos="6.83" edge=":C_w2" slope="0.00"/>
    </timestep>
    <timestep time="32.00">
        <person id="p0" x="111.78" y="92.60" angle="0.00" speed="0.00" pos="6.83" edge=":C_w2" slope="0.00"/>
    </timestep>
    <timestep time="33.00">
        <person id="p0" x="111.78" y="92.60" angle="0.00" speed="0.00" pos="6.83" edge=":C_w2" slope="0.00"/>
    </timestep>
    <timestep time="34.00">
        <person id="p0" x="111.78" y="92.60" angle="0.00" speed="0.00" pos="6.83" edge=":C_w2" slope="0.00"/>
    </timestep>
    <timestep time="35.00">
        <person id="p0" x="111.78" y="92.60" angle="0.00" speed="0.00" pos="6.83" edge=":C_w2" slope="0.00"/>
    </timestep>
    <timestep time="36.00">
        <person id="p0" x="111.78" y="92.60" angle="0.00" speed="0.00" pos="6.83" edge=":C_w2" slope="0.00"/>
    </timestep>
    <timestep time="37.00">
        <person id="p0" x="111.78" y="92.60" angle="0.00" speed="0.00" pos="6.83" edge=":C_w2" slope="0.00"/>
    </timestep>
    <timestep time="38.00">
        <person id="p0" x="111.78" y="92.60" angle="0.00" speed="0.00" pos="6.83" edge=":C_w2" slope="0.00"/>
    </timestep>
    <timestep time="39.00">
        <person id="p0" x="111.78" y="92.60" angle="0.00" speed="0.00" pos="6.83" edge=":C_w2" slope="0.00"/>
    </timestep>
    <timestep time="40.00">
        <person id="p0" x="111.78" y="92.60" angle="0.00" speed="0.00" pos="6.83" edge=":C_w2" slope="0.00"/>
    </timestep>
    <timestep time="41.00">
        <person id="p0" x="111.78" y="92.60" angle="0.00" speed="0.00" pos="6.83" edge=":C_w2" slope="0.00"/>
    </timestep>
    <timestep time="42.00">
        <person id="p0" x="111.78" y="92.60" angle="0.00" speed="0.00" pos="6.83" edge=":C_w2" slope="0.00"/>
    </timestep>
    <timestep time="43.00">
        <person id="p0" x="111.78" y="92.60" angle="0.00" speed="0.00" pos="6.83" edge=":C_w2" slope="0.00"/>
    </timestep>
    <timestep time="44.00">
        <person id="p0" x="111.78" y="92.60" angle="0.00" speed="0.00" pos="6.83" edge=":C_w2" slope="0.00"/>
    </timestep>
    <timestep time="45.00">
        <person id="p0" x="111.78" y="93.99" angle="0.00" speed="1.39" pos="1.39" edge=":C_c1" slope="0.00"/>
    </timestep>
    <timestep time="46.00">
        <person id="p0" x="111.78" y="95.40" angle="0.00" speed="1.41" pos="2.80" edge=":C_c1" slope="0.00"/>
    </timestep>
    <timestep time="47.00">
        <person id="p0" x="111.78" y="96.82" angle="0.00" speed="1.42" pos="4.22" edge=":C_c1" slope="0.00"/>
    </timestep>
    <timestep time="48.00">
        <person id="p0" x="111.78" y="98.12" angle="0.00" speed="1.30" pos="5.52" edge=":C_c1" slope="0.00"/>
    </timestep>
    <timestep time="49.00">
        <person id="p0" x="111.78" y="99.53" angle="0.00" speed="1.40" pos="6.93" edge=":C_c1" slope="0.00"/>
    </timestep>
    <timestep time="50.00">
        <person id="p0" x="111.78" y="100.76" angle="0.00" speed="1.23" pos="8.16" edge=":C_c1" slope="0.00"/>
    </timestep>
    <timestep time="51.00">
        <person id="p0" x="111.78" y="102.20" angle="0.00" speed="1.45" pos="9.60" edge=":C_c1" slope="0.00"/>
    </timestep>
    <timestep time="52.00">
        <person id="p0" x="111.78" y="103.48" angle="0.00" speed="1.28" pos="10.88" edge=":C_c1" slope="0.00"/>
    </timestep>
    <timestep time="53.00">
        <person id="p0" x="111.78" y="104.74" angle="0.00" speed="1.26" pos="12.14" edge=":C_c1" slope="0.00"/>
    </timestep>
    <timestep time="54.00">
        <person id="p0" x="111.78" y="106.04" angle="0.00" speed="1.30" pos="13.44" edge=":C_c1" slope="0.00"/>
    </timestep>
    <timestep time="55.00">
        <person id="p0" x="111.78" y="107.31" angle="0.00" speed="1.27" pos="14.71" edge=":C_c1" slope="0.00"/>
    </timestep>
    <timestep time="56.00">
        <person id="p0" x="111.78" y="108.50" angle="0.00" speed="1.20" pos="1.10" edge=":C_w1" slope="0.00"/>
    </timestep>
    <timestep time="57.00">
        <person id="p0" x="111.49" y="109.83" angle="343.90" speed="1.19" pos="2.29" edge=":C_w1" slope="0.00"/>
    </timestep>
    <timestep time="58.00">
        <person id="p0" x="111.10" y="111.16" angle="343.90" speed="1.38" pos="3.67" edge=":C_w1" slope="0.00"/>
    </timestep>
    <timestep time="59.00">
        <person id="p0" x="111.03" y="112.30" angle="0.00" speed="1.33" pos="5.00" edge=":C_w1" slope="0.00"/>
    </timestep>
    <timestep time="60.00">
        <person id="p0" x="111.14" y="113.60" angle="0.00" speed="1.30" pos="0.95" edge="CN" slope="0.00"/>
    </timestep>
    <timestep time="61.00">
        <person id="p0" x="111.14" y="115.02" angle="0.00" speed="1.42" pos="2.37" edge="CN" slope="0.00"/>
    </timestep>
    <timestep time="62.00">
        <person id="p0" x="111.14" y="116.21" angle="0.00" speed="1.19" pos="3.56" edge="CN" slope="0.00"/>
    </timestep>
    <timestep time="63.00">
        <person id="p0" x="111.14" y="117.63" angle="0.00" speed="1.42" pos="4.98" edge="CN" slope="0.00"/>
    </timestep>
    <timestep time="64.00">
        <person id="p0" x="111.14" y="118.91" angle="0.00" speed="1.28" pos="6.26" edge="CN" slope="0.00"/>
    </timestep>
    <timestep time="65.00">
        <person id="p0" x="111.14" y="120.34" angle="0.00" speed="1.43" pos="7.69" edge="CN" slope="0.00"/>
    </timestep>
    <timestep time="66.00">
        <person id="p0" x="111.14" y="121.80" angle="0.00" speed="1.46" pos="9.15" edge="CN" slope="0.00"/>
    </timestep>
    <timestep time="67.00">
        <person id="p0" x="111.14" y="123.19" angle="0.00" speed="1.39" pos="10.54" edge="CN" slope="0.00"/>
    </timestep>
    <timestep time="68.00">
        <person id="p0" x="111.14" y="124.51" angle="0.00" speed="1.31" pos="11.86" edge="CN" slope="0.00"/>
    </timestep>
    <timestep time="69.00">
        <person id="p0" x="111.14" y="125.70" angle="0.00" speed="1.20" pos="13.05" edge="CN" slope="0.00"/>
    </timestep>
    <timestep time="70.00">
        <person id="p0" x="111.14" y="127.16" angle="0.00" speed="1.45" pos="14.51" edge="CN" slope="0.00"/>
    </timestep>
    <timestep time="71.00">
        <person id="p0" x="111.14" y="128.58" angle="0.00" speed="1.42" pos="15.93" edge="CN" slope="0.00"/>
    </timestep>
    <timestep time="72.00">
        <person id="p0" x="111.14" y="129.76" angle="0.00" speed="1.18" pos="17.11" edge="CN" slope="0.00"/>
    </timestep>
    <timestep time="73.00">
        <person id="p0" x="111.14" y="131.14" angle="0.00" speed="1.38" pos="18.49" edge="CN" slope="0.00"/>
    </timestep>
    <timestep time="74.00">
        <person id="p0" x="111.14" y="132.51" angle="0.00" speed="1.37" pos="19.86" edge="CN" slope="0.00"/>
    </timestep>
    <timestep time="75.00">
        <person id="p0" x="111.14" y="133.96" angle="0.00" speed="1.45" pos="21.31" edge="CN" slope="0.00"/>
    </timestep>
    <timestep time="76.00">
        <person id="p0" x="111.14" y="135.26" angle="0.00" speed="1.31" pos="22.61" edge="CN" slope="0.00"/>
    </timestep>
    <timestep time="77.00">
        <person id="p0" x="111.14" y="136.67" angle="0.00" speed="1.41" pos="24.02" edge="CN" slope="0.00"/>
    </timestep>
    <timestep time="78.00">
        <person id="p0" x="111.14" y="138.09" angle="0.00" speed="1.42" pos="25.44" edge="CN" slope="0.00"/>
    </timestep>
    <timestep time="79.00">
        <person id="p0" x="111.14" y="139.55" angle="0.00" speed="1.46" pos="26.90" edge="CN" slope="0.00"/>
    </timestep>
    <timestep time="80.00">
        <person id="p0" x="111.14" y="141.00" angle="0.00" speed="1.45" pos="28.35" edge="CN" slope="0.00"/>
    </timestep>
    <timestep time="81.00">
        <person id="p0" x="111.14" y="142.26" angle="0.00" speed="1.26" pos="29.61" edge="CN" slope="0.00"/>
    </timestep>
    <timestep time="82.00">
        <person id="p0" x="111.14" y="143.63" angle="0.00" speed="1.37" pos="30.98" edge="CN" slope="0.00"/>
    </timestep>
    <timestep time="83.00">
        <person id="p0" x="111.14" y="145.01" angle="0.00" speed="1.39" pos="32.36" edge="CN" slope="0.00"/>
    </timestep>
    <timestep time="84.00">
        <person id="p0" x="111.14" y="146.42" angle="0.00" speed="1.41" pos="33.77" edge="CN" slope="0.00"/>
    </timestep>
    <timestep time="85.00">
        <person id="p0" x="111.14" y="147.70" angle="0.00" speed="1.27" pos="35.05" edge="CN" slope="0.00"/>
    </timestep>
    <timestep time="86.00">
        <person id="p0" x="111.14" y="149.04" angle="0.00" speed="1.35" pos="36.39" edge="CN" slope="0.00"/>
    </timestep>
    <timestep time="87.00">
        <person id="p0" x="111.14" y="150.33" angle="0.00" speed="1.29" pos="37.68" edge="CN" slope="0.00"/>
    </timestep>
    <timestep time="88.00">
        <person id="p0" x="111.14" y="151.69" angle="0.00" speed="1.36" pos="39.04" edge="CN" slope="0.00"/>
    </timestep>
    <timestep time="89.00">
        <person id="p0" x="111.14" y="153.01" angle="0.00" speed="1.32" pos="40.36" edge="CN" slope="0.00"/>
    </timestep>
    <timestep time="90.00">
        <person id="p0" x="111.14" y="154.24" angle="0.00" speed="1.23" pos="41.59" edge="CN" slope="0.00"/>
    </timestep>
    <timestep time="91.00">
        <person id="p0" x="111.14" y="155.54" angle="0.00" speed="1.30" pos="42.89" edge="CN" slope="0.00"/>
    </timestep>
    <timestep time="92.00"/>
</fcd-export>
