<?xml version="1.0" encoding="UTF-8"?>

<!-- generated on 05/02/13 14:16:39 by SUMO sumo Version 0.17.0
<?xml version="1.0" encoding="UTF-8"?>

<configuration xmlns:xsi="http://www.w3.org/2001/XMLSchema-instance" xsi:noNamespaceSchemaLocation="http://sumo-sim.org/xsd/sumoConfiguration.xsd">

    <input>
        <net-file value="three_split.net.xml"/>
        <additional-files value="input_routes.rou.xml"/>
    </input>

    <output>
        <tripinfo-output value="tripinfos.xml"/>
    </output>

    <time>
        <begin value="0"/>
    </time>

    <report>
        <no-duration-log value="true"/>
        <no-step-log value="true"/>
    </report>

    <emissions>
        <device.hbefa.explicit value="0,2,4,6,8"/>
    </emissions>

</configuration>
-->

<tripinfos>
    <tripinfo id="0" depart="0.00" departLane="beg_0" departPos="3.10" departSpeed="13.89" departDelay="0.00" arrival="253.00" arrivalLane="rend_0" arrivalPos="500.00" arrivalSpeed="13.89" duration="253.00" routeLength="3478.10" waitSteps="0" rerouteNo="0" devices="tripinfo_0 hbefa_0" vType="DEFAULT_VEHTYPE" vaporized="">
        <emissions CO_abs="513.258297" CO2_abs="554725.159915" HC_abs="92.471272" PMx_abs="38.162110" NOx_abs="949.182649" fuel_abs="221.160754"/>
    </tripinfo>
    <tripinfo id="1" depart="20.00" departLane="beg_0" departPos="3.10" departSpeed="13.89" departDelay="0.00" arrival="273.00" arrivalLane="rend_0" arrivalPos="500.00" arrivalSpeed="13.89" duration="253.00" routeLength="3478.10" waitSteps="0" rerouteNo="0" devices="tripinfo_1" vType="DEFAULT_VEHTYPE" vaporized=""/>
    <tripinfo id="2" depart="40.00" departLane="beg_0" departPos="3.10" departSpeed="13.89" departDelay="0.00" arrival="293.00" arrivalLane="rend_0" arrivalPos="500.00" arrivalSpeed="13.89" duration="253.00" routeLength="3478.10" waitSteps="0" rerouteNo="0" devices="tripinfo_2 hbefa_2" vType="DEFAULT_VEHTYPE" vaporized="">
        <emissions CO_abs="513.258297" CO2_abs="554725.159915" HC_abs="92.471272" PMx_abs="38.162110" NOx_abs="949.182649" fuel_abs="221.160754"/>
    </tripinfo>
    <tripinfo id="3" depart="60.00" departLane="beg_0" departPos="3.10" departSpeed="13.89" departDelay="0.00" arrival="313.00" arrivalLane="rend_0" arrivalPos="500.00" arrivalSpeed="13.89" duration="253.00" routeLength="3478.10" waitSteps="0" rerouteNo="0" devices="tripinfo_3" vType="DEFAULT_VEHTYPE" vaporized=""/>
    <tripinfo id="4" depart="80.00" departLane="beg_0" departPos="3.10" departSpeed="13.89" departDelay="0.00" arrival="333.00" arrivalLane="rend_0" arrivalPos="500.00" arrivalSpeed="13.89" duration="253.00" routeLength="3478.10" waitSteps="0" rerouteNo="0" devices="tripinfo_4 hbefa_4" vType="DEFAULT_VEHTYPE" vaporized="">
        <emissions CO_abs="513.258297" CO2_abs="554725.159915" HC_abs="92.471272" PMx_abs="38.162110" NOx_abs="949.182649" fuel_abs="221.160754"/>
    </tripinfo>
    <tripinfo id="5" depart="100.00" departLane="beg_0" departPos="3.10" departSpeed="13.89" departDelay="0.00" arrival="353.00" arrivalLane="rend_0" arrivalPos="500.00" arrivalSpeed="13.89" duration="253.00" routeLength="3478.10" waitSteps="0" rerouteNo="0" devices="tripinfo_5" vType="DEFAULT_VEHTYPE" vaporized=""/>
    <tripinfo id="6" depart="120.00" departLane="beg_0" departPos="3.10" departSpeed="13.89" departDelay="0.00" arrival="373.00" arrivalLane="rend_0" arrivalPos="500.00" arrivalSpeed="13.89" duration="253.00" routeLength="3478.10" waitSteps="0" rerouteNo="0" devices="tripinfo_6 hbefa_6" vType="DEFAULT_VEHTYPE" vaporized="">
        <emissions CO_abs="513.258297" CO2_abs="554725.159915" HC_abs="92.471272" PMx_abs="38.162110" NOx_abs="949.182649" fuel_abs="221.160754"/>
    </tripinfo>
    <tripinfo id="7" depart="140.00" departLane="beg_0" departPos="3.10" departSpeed="13.89" departDelay="0.00" arrival="393.00" arrivalLane="rend_0" arrivalPos="500.00" arrivalSpeed="13.89" duration="253.00" routeLength="3478.10" waitSteps="0" rerouteNo="0" devices="tripinfo_7" vType="DEFAULT_VEHTYPE" vaporized=""/>
    <tripinfo id="8" depart="160.00" departLane="beg_0" departPos="3.10" departSpeed="13.89" departDelay="0.00" arrival="413.00" arrivalLane="rend_0" arrivalPos="500.00" arrivalSpeed="13.89" duration="253.00" routeLength="3478.10" waitSteps="0" rerouteNo="0" devices="tripinfo_8 hbefa_8" vType="DEFAULT_VEHTYPE" vaporized="">
        <emissions CO_abs="513.258297" CO2_abs="554725.159915" HC_abs="92.471272" PMx_abs="38.162110" NOx_abs="949.182649" fuel_abs="221.160754"/>
    </tripinfo>
    <tripinfo id="9" depart="180.00" departLane="beg_0" departPos="3.10" departSpeed="13.89" departDelay="0.00" arrival="433.00" arrivalLane="rend_0" arrivalPos="500.00" arrivalSpeed="13.89" duration="253.00" routeLength="3478.10" waitSteps="0" rerouteNo="0" devices="tripinfo_9" vType="DEFAULT_VEHTYPE" vaporized=""/>
</tripinfos>
