<?xml version="1.0" encoding="UTF-8"?>

<!-- generated on 2022-04-05 10:31:32 by Eclipse SUMO sumo Version v1_12_0+1949-1d2ae20f770
This data file and the accompanying materials
are made available under the terms of the Eclipse Public License v2.0
which accompanies this distribution, and is available at
http://www.eclipse.org/legal/epl-v20.html
This file may also be made available under the following Secondary
Licenses when the conditions for such availability set forth in the Eclipse
Public License 2.0 are satisfied: GNU General Public License, version 2
or later which is available at
https://www.gnu.org/licenses/old-licenses/gpl-2.0-standalone.html
SPDX-License-Identifier: EPL-2.0 OR GPL-2.0-or-later
<configuration xmlns:xsi="http://www.w3.org/2001/XMLSchema-instance" xsi:noNamespaceSchemaLocation="http://sumo.dlr.de/xsd/sumoConfiguration.xsd">

    <input>
        <net-file value="net.net.xml"/>
        <route-files value="input_routes.rou.xml"/>
    </input>

    <output>
        <write-license value="true"/>
        <tripinfo-output value="tripinfos.xml"/>
        <stop-output value="stopinfos.xml"/>
    </output>

    <processing>
        <ignore-route-errors value="true"/>
        <default.speeddev value="0"/>
        <pedestrian.model value="nonInteracting"/>
    </processing>

    <report>
        <xml-validation value="never"/>
        <xml-validation.routes value="never"/>
        <duration-log.disable value="true"/>
        <no-step-log value="true"/>
    </report>

    <mesoscopic>
        <mesosim value="true"/>
    </mesoscopic>

</configuration>
-->

<tripinfos xmlns:xsi="http://www.w3.org/2001/XMLSchema-instance" xsi:noNamespaceSchemaLocation="http://sumo.dlr.de/xsd/tripinfo_file.xsd">
    <tripinfo id="departPosPastStop" depart="0.00" departLane="" departPos="0.00" departSpeed="13.90" departDelay="0.00" arrival="22.00" arrivalLane="" arrivalPos="100.00" arrivalSpeed="13.89" duration="22.00" routeLength="300.00" waitingTime="0.00" waitingCount="0" stopTime="0.00" timeLoss="0.00" rerouteNo="0" devices="tripinfo_departPosPastStop" vType="DEFAULT_VEHTYPE" speedFactor="1.00" vaporized=""/>
    <tripinfo id="departPosBase" depart="0.00" departLane="" departPos="0.00" departSpeed="0.00" departDelay="0.00" arrival="25.00" arrivalLane="" arrivalPos="100.00" arrivalSpeed="13.89" duration="25.00" routeLength="300.00" waitingTime="0.00" waitingCount="0" stopTime="3.00" timeLoss="3.00" rerouteNo="0" devices="tripinfo_departPosBase" vType="DEFAULT_VEHTYPE" speedFactor="1.00" vaporized=""/>
    <tripinfo id="departPosRandom" depart="0.00" departLane="" departPos="0.00" departSpeed="0.00" departDelay="0.00" arrival="27.00" arrivalLane="" arrivalPos="100.00" arrivalSpeed="13.89" duration="27.00" routeLength="300.00" waitingTime="0.00" waitingCount="0" stopTime="3.00" timeLoss="4.67" rerouteNo="0" devices="tripinfo_departPosRandom" vType="DEFAULT_VEHTYPE" speedFactor="1.00" vaporized=""/>
    <tripinfo id="arrivalPosBeforeStop" depart="0.00" departLane="" departPos="0.00" departSpeed="7.39" departDelay="0.00" arrival="31.00" arrivalLane="" arrivalPos="10.00" arrivalSpeed="9.80" duration="31.00" routeLength="210.00" waitingTime="0.00" waitingCount="0" stopTime="3.00" timeLoss="9.34" rerouteNo="0" devices="tripinfo_arrivalPosBeforeStop" vType="DEFAULT_VEHTYPE" speedFactor="1.00" vaporized=""/>
</tripinfos>
