<?xml version="1.0" encoding="UTF-8"?>

<!-- generated on Tue Dec  3 16:33:16 2013 by SUMO sumo Version dev-SVN-r15233
<?xml version="1.0" encoding="UTF-8"?>

<configuration xmlns:xsi="http://www.w3.org/2001/XMLSchema-instance" xsi:noNamespaceSchemaLocation="http://sumo-sim.org/xsd/sumoConfiguration.xsd">

    <input>
        <net-file value="net.net.xml"/>
        <additional-files value="input_routes.rou.xml,input_additional.add.xml"/>
    </input>

    <time>
        <begin value="0"/>
        <end value="150"/>
    </time>

    <report>
        <no-duration-log value="true"/>
        <no-step-log value="true"/>
    </report>

</configuration>
-->

<meandata xmlns:xsi="http://www.w3.org/2001/XMLSchema-instance" xsi:noNamespaceSchemaLocation="http://sumo-sim.org/xsd/meandata_file.xsd">
    <interval begin="0.00" end="15.00" id="dump_15">
        <edge id="beg">
            <lane id="beg_0" sampledSeconds="14.00" CO_abs="2536.476543" CO2_abs="135325.471357" HC_abs="46.939512" PMx_abs="19.533447" NOx_abs="312.788287" fuel_abs="53.952250"
            CO_normed="1221.049785" CO2_normed="65145.147178" HC_normed="22.596496" PMx_normed="9.403324" NOx_normed="150.575046" fuel_normed="25.972400"
            traveltime="27.46" CO_perVeh="4974.667114" CO2_perVeh="265407.213789" HC_perVeh="92.060164" PMx_perVeh="38.309993" NOx_perVeh="613.456336" fuel_perVeh="105.813904"/>
        </edge>
    </interval>
    <interval begin="0.00" end="15.00" id="dump_15_internal">
        <edge id="beg">
            <lane id="beg_0" sampledSeconds="14.00" CO_abs="2536.476543" CO2_abs="135325.471357" HC_abs="46.939512" PMx_abs="19.533447" NOx_abs="312.788287" fuel_abs="53.952250"
            CO_normed="1221.049785" CO2_normed="65145.147178" HC_normed="22.596496" PMx_normed="9.403324" NOx_normed="150.575046" fuel_normed="25.972400"
            traveltime="27.46" CO_perVeh="4974.667114" CO2_perVeh="265407.213789" HC_perVeh="92.060164" PMx_perVeh="38.309993" NOx_perVeh="613.456336" fuel_perVeh="105.813904"/>
        </edge>
    </interval>
    <interval begin="15.00" end="30.00" id="dump_15">
        <edge id="beg">
            <lane id="beg_0" sampledSeconds="9.63" CO_abs="450.243911" CO2_abs="30765.496553" HC_abs="8.066027" PMx_abs="2.739733" NOx_abs="64.692120" fuel_abs="12.265817"
            CO_normed="216.745640" CO2_normed="14810.388472" HC_normed="3.882953" PMx_normed="1.318897" NOx_normed="31.142531" fuel_normed="5.904716"
            traveltime="19.66" CO_perVeh="919.013723" CO2_perVeh="62796.881500" HC_perVeh="16.463941" PMx_perVeh="5.592197" NOx_perVeh="132.046086" fuel_perVeh="25.036327"/>
        </edge>
        <edge id="middle">
            <lane id="middle_0" sampledSeconds="5.28" CO_abs="0" CO2_abs="10689.669193" HC_abs="1.672537" PMx_abs="0.687718" NOx_abs="17.953148" fuel_abs="4.261814"
            CO_normed="0" CO2_normed="2590.126811" HC_normed="0.405259" PMx_normed="0.166635" NOx_normed="4.350081" fuel_normed="1.032646"
            traveltime="71.26" CO_perVeh="0" CO2_perVeh="144154.082170" HC_perVeh="22.554764" PMx_perVeh="9.274134" NOx_perVeh="242.104736" fuel_perVeh="57.472117"/>
        </edge>
    </interval>
    <interval begin="15.00" end="30.00" id="dump_15_internal">
        <edge id=":beg_0">
            <lane id=":beg_0_0" sampledSeconds="0.81" CO_abs="0" CO2_abs="161.498599" HC_abs="0.025269" PMx_abs="0.010390" NOx_abs="0.271235" fuel_abs="0.064387"
            CO_normed="0" CO2_normed="6251.558683" HC_normed="0.978137" PMx_normed="0.402193" NOx_normed="10.499404" fuel_normed="2.492405"
            traveltime="0.45" CO_perVeh="0" CO2_perVeh="89.401010" HC_perVeh="0.013988" PMx_perVeh="0.005752" NOx_perVeh="0.150148" fuel_perVeh="0.035643"/>
        </edge>
        <edge id="beg">
            <lane id="beg_0" sampledSeconds="9.63" CO_abs="450.243911" CO2_abs="30765.496553" HC_abs="8.066027" PMx_abs="2.739733" NOx_abs="64.692120" fuel_abs="12.265817"
            CO_normed="216.745640" CO2_normed="14810.388472" HC_normed="3.882953" PMx_normed="1.318897" NOx_normed="31.142531" fuel_normed="5.904716"
            traveltime="19.66" CO_perVeh="919.013723" CO2_perVeh="62796.881500" HC_perVeh="16.463941" PMx_perVeh="5.592197" NOx_perVeh="132.046086" fuel_perVeh="25.036327"/>
        </edge>
        <edge id="middle">
            <lane id="middle_0" sampledSeconds="5.28" CO_abs="0" CO2_abs="10689.669193" HC_abs="1.672537" PMx_abs="0.687718" NOx_abs="17.953148" fuel_abs="4.261814"
            CO_normed="0" CO2_normed="2590.126811" HC_normed="0.405259" PMx_normed="0.166635" NOx_normed="4.350081" fuel_normed="1.032646"
            traveltime="71.26" CO_perVeh="0" CO2_perVeh="144154.082170" HC_perVeh="22.554764" PMx_perVeh="9.274134" NOx_perVeh="242.104736" fuel_perVeh="57.472117"/>
        </edge>
    </interval>
    <interval begin="30.00" end="45.00" id="dump_15">
        <edge id="middle">
            <lane id="middle_0" sampledSeconds="15.00" CO_abs="0" CO2_abs="32069.007578" HC_abs="5.017610" PMx_abs="2.063155" NOx_abs="53.859443" fuel_abs="12.785443"
            CO_normed="0" CO2_normed="7770.380433" HC_normed="1.215776" PMx_normed="0.499906" NOx_normed="13.050244" fuel_normed="3.097937"
            traveltime="71.26" CO_perVeh="0" CO2_perVeh="152347.012020" HC_perVeh="23.836654" PMx_perVeh="9.801225" NOx_perVeh="255.864646" fuel_perVeh="60.738518"/>
        </edge>
    </interval>
    <interval begin="30.00" end="45.00" id="dump_15_internal">
        <edge id="middle">
            <lane id="middle_0" sampledSeconds="15.00" CO_abs="0" CO2_abs="32069.007578" HC_abs="5.017610" PMx_abs="2.063155" NOx_abs="53.859443" fuel_abs="12.785443"
            CO_normed="0" CO2_normed="7770.380433" HC_normed="1.215776" PMx_normed="0.499906" NOx_normed="13.050244" fuel_normed="3.097937"
            traveltime="71.26" CO_perVeh="0" CO2_perVeh="152347.012020" HC_perVeh="23.836654" PMx_perVeh="9.801225" NOx_perVeh="255.864646" fuel_perVeh="60.738518"/>
        </edge>
    </interval>
    <interval begin="45.00" end="60.00" id="dump_15">
        <edge id="middle">
            <lane id="middle_0" sampledSeconds="15.00" CO_abs="0" CO2_abs="32069.007578" HC_abs="5.017610" PMx_abs="2.063155" NOx_abs="53.859443" fuel_abs="12.785443"
            CO_normed="0" CO2_normed="7770.380433" HC_normed="1.215776" PMx_normed="0.499906" NOx_normed="13.050244" fuel_normed="3.097937"
            traveltime="71.26" CO_perVeh="0" CO2_perVeh="152347.012020" HC_perVeh="23.836654" PMx_perVeh="9.801225" NOx_perVeh="255.864646" fuel_perVeh="60.738518"/>
        </edge>
    </interval>
    <interval begin="45.00" end="60.00" id="dump_15_internal">
        <edge id="middle">
            <lane id="middle_0" sampledSeconds="15.00" CO_abs="0" CO2_abs="32069.007578" HC_abs="5.017610" PMx_abs="2.063155" NOx_abs="53.859443" fuel_abs="12.785443"
            CO_normed="0" CO2_normed="7770.380433" HC_normed="1.215776" PMx_normed="0.499906" NOx_normed="13.050244" fuel_normed="3.097937"
            traveltime="71.26" CO_perVeh="0" CO2_perVeh="152347.012020" HC_perVeh="23.836654" PMx_perVeh="9.801225" NOx_perVeh="255.864646" fuel_perVeh="60.738518"/>
        </edge>
    </interval>
    <interval begin="60.00" end="75.00" id="dump_15">
        <edge id="middle">
            <lane id="middle_0" sampledSeconds="15.00" CO_abs="0" CO2_abs="32069.007578" HC_abs="5.017610" PMx_abs="2.063155" NOx_abs="53.859443" fuel_abs="12.785443"
            CO_normed="0" CO2_normed="7770.380433" HC_normed="1.215776" PMx_normed="0.499906" NOx_normed="13.050244" fuel_normed="3.097937"
            traveltime="71.26" CO_perVeh="0" CO2_perVeh="152347.012020" HC_perVeh="23.836654" PMx_perVeh="9.801225" NOx_perVeh="255.864646" fuel_perVeh="60.738518"/>
        </edge>
    </interval>
    <interval begin="60.00" end="75.00" id="dump_15_internal">
        <edge id="middle">
            <lane id="middle_0" sampledSeconds="15.00" CO_abs="0" CO2_abs="32069.007578" HC_abs="5.017610" PMx_abs="2.063155" NOx_abs="53.859443" fuel_abs="12.785443"
            CO_normed="0" CO2_normed="7770.380433" HC_normed="1.215776" PMx_normed="0.499906" NOx_normed="13.050244" fuel_normed="3.097937"
            traveltime="71.26" CO_perVeh="0" CO2_perVeh="152347.012020" HC_perVeh="23.836654" PMx_perVeh="9.801225" NOx_perVeh="255.864646" fuel_perVeh="60.738518"/>
        </edge>
    </interval>
    <interval begin="75.00" end="90.00" id="dump_15">
        <edge id="middle">
            <lane id="middle_0" sampledSeconds="15.00" CO_abs="0" CO2_abs="32069.007578" HC_abs="5.017610" PMx_abs="2.063155" NOx_abs="53.859443" fuel_abs="12.785443"
            CO_normed="0" CO2_normed="7770.380433" HC_normed="1.215776" PMx_normed="0.499906" NOx_normed="13.050244" fuel_normed="3.097937"
            traveltime="71.26" CO_perVeh="0" CO2_perVeh="152347.012020" HC_perVeh="23.836654" PMx_perVeh="9.801225" NOx_perVeh="255.864646" fuel_perVeh="60.738518"/>
        </edge>
    </interval>
    <interval begin="75.00" end="90.00" id="dump_15_internal">
        <edge id="middle">
            <lane id="middle_0" sampledSeconds="15.00" CO_abs="0" CO2_abs="32069.007578" HC_abs="5.017610" PMx_abs="2.063155" NOx_abs="53.859443" fuel_abs="12.785443"
            CO_normed="0" CO2_normed="7770.380433" HC_normed="1.215776" PMx_normed="0.499906" NOx_normed="13.050244" fuel_normed="3.097937"
            traveltime="71.26" CO_perVeh="0" CO2_perVeh="152347.012020" HC_perVeh="23.836654" PMx_perVeh="9.801225" NOx_perVeh="255.864646" fuel_perVeh="60.738518"/>
        </edge>
    </interval>
    <interval begin="90.00" end="105.00" id="dump_15">
        <edge id="end">
            <lane id="end_0" sampledSeconds="7.88" CO_abs="1994.641478" CO2_abs="102831.776753" HC_abs="36.155851" PMx_abs="15.243175" NOx_abs="240.677318" fuel_abs="40.997492"
            CO_normed="960.212526" CO2_normed="49502.810993" HC_normed="17.405284" PMx_normed="7.338004" NOx_normed="115.861110" fuel_normed="19.736031"
            traveltime="22.57" CO_perVeh="5711.922140" CO2_perVeh="294472.519918" HC_perVeh="103.537105" PMx_perVeh="43.650867" NOx_perVeh="689.211628" fuel_perVeh="117.401792"/>
        </edge>
        <edge id="middle">
            <lane id="middle_0" sampledSeconds="7.03" CO_abs="147.929440" CO2_abs="16836.672898" HC_abs="4.249251" PMx_abs="1.812286" NOx_abs="33.430874" fuel_abs="6.712527"
            CO_normed="35.843580" CO2_normed="4079.557290" HC_normed="1.029601" PMx_normed="0.439120" NOx_normed="8.100363" fuel_normed="1.626458"
            traveltime="79.08" CO_perVeh="1664.101194" CO2_perVeh="189400.619024" HC_perVeh="47.801060" PMx_perVeh="20.386936" NOx_perVeh="376.073601" fuel_perVeh="75.511168"/>
        </edge>
    </interval>
    <interval begin="90.00" end="105.00" id="dump_15_internal">
        <edge id=":end_1">
            <lane id=":end_1_0" sampledSeconds="0.91" CO_abs="147.453994" CO2_abs="8145.843884" HC_abs="2.861972" PMx_abs="1.249753" NOx_abs="18.845837" fuel_abs="3.247622"
            CO_normed="5707.896549" CO2_normed="315322.989041" HC_normed="110.786011" PMx_normed="48.377537" NOx_normed="729.516259" fuel_normed="125.714393"
            traveltime="0.50" CO_perVeh="81.626318" CO2_perVeh="4509.306436" HC_perVeh="1.584306" PMx_perVeh="0.691828" NOx_perVeh="10.432517" fuel_perVeh="1.797791"/>
        </edge>
        <edge id="end">
            <lane id="end_0" sampledSeconds="7.88" CO_abs="1994.641478" CO2_abs="102831.776753" HC_abs="36.155851" PMx_abs="15.243175" NOx_abs="240.677318" fuel_abs="40.997492"
            CO_normed="960.212526" CO2_normed="49502.810993" HC_normed="17.405284" PMx_normed="7.338004" NOx_normed="115.861110" fuel_normed="19.736031"
            traveltime="22.57" CO_perVeh="5711.922140" CO2_perVeh="294472.519918" HC_perVeh="103.537105" PMx_perVeh="43.650867" NOx_perVeh="689.211628" fuel_perVeh="117.401792"/>
        </edge>
        <edge id="middle">
            <lane id="middle_0" sampledSeconds="7.03" CO_abs="147.929440" CO2_abs="16836.672898" HC_abs="4.249251" PMx_abs="1.812286" NOx_abs="33.430874" fuel_abs="6.712527"
            CO_normed="35.843580" CO2_normed="4079.557290" HC_normed="1.029601" PMx_normed="0.439120" NOx_normed="8.100363" fuel_normed="1.626458"
            traveltime="79.08" CO_perVeh="1664.101194" CO2_perVeh="189400.619024" HC_perVeh="47.801060" PMx_perVeh="20.386936" NOx_perVeh="376.073601" fuel_perVeh="75.511168"/>
        </edge>
    </interval>
    <interval begin="105.00" end="120.00" id="dump_15">
        <edge id="end">
            <lane id="end_0" sampledSeconds="11.85" CO_abs="889.293809" CO2_abs="60766.097936" HC_abs="15.931515" PMx_abs="5.411351" NOx_abs="127.775858" fuel_abs="24.226679"
            CO_normed="428.102526" CO2_normed="29252.559432" HC_normed="7.669368" PMx_normed="2.605003" NOx_normed="61.510793" fuel_normed="11.662628"
            traveltime="17.93" CO_perVeh="1345.738021" CO2_perVeh="91955.265625" HC_perVeh="24.108619" PMx_perVeh="8.188813" NOx_perVeh="193.358852" fuel_perVeh="36.661409"/>
        </edge>
        <edge id="rend">
            <lane id="rend_0" sampledSeconds="3.33" CO_abs="249.542559" CO2_abs="17051.426018" HC_abs="4.470503" PMx_abs="1.518466" NOx_abs="35.854871" fuel_abs="6.798189"
            CO_normed="119.780428" CO2_normed="8184.684489" HC_normed="2.145842" PMx_normed="0.728864" NOx_normed="17.210338" fuel_normed="3.263131"
            traveltime="17.99" CO_perVeh="1349.652012" CO2_perVeh="92222.711488" HC_perVeh="24.178737" PMx_perVeh="8.212630" NOx_perVeh="193.921224" fuel_perVeh="36.768036"/>
        </edge>
    </interval>
    <interval begin="105.00" end="120.00" id="dump_15_internal">
        <edge id=":absEnd_0">
            <lane id=":absEnd_0_0" sampledSeconds="0.18" CO_abs="13.766451" CO2_abs="940.671657" HC_abs="0.246623" PMx_abs="0.083769" NOx_abs="1.977996" fuel_abs="0.375034"
            CO_normed="33039.481257" CO2_normed="2257611.977235" HC_normed="591.895490" PMx_normed="201.045173" NOx_normed="4747.191556" fuel_normed="900.081517"
            traveltime="3.597122e-03" CO_perVeh="0.269930" CO2_perVeh="18.444542" HC_perVeh="0.004836" PMx_perVeh="0.001643" NOx_perVeh="0.038784" fuel_perVeh="0.007354"/>
        </edge>
        <edge id="end">
            <lane id="end_0" sampledSeconds="11.85" CO_abs="889.293809" CO2_abs="60766.097936" HC_abs="15.931515" PMx_abs="5.411351" NOx_abs="127.775858" fuel_abs="24.226679"
            CO_normed="428.102526" CO2_normed="29252.559432" HC_normed="7.669368" PMx_normed="2.605003" NOx_normed="61.510793" fuel_normed="11.662628"
            traveltime="17.93" CO_perVeh="1345.738021" CO2_perVeh="91955.265625" HC_perVeh="24.108619" PMx_perVeh="8.188813" NOx_perVeh="193.358852" fuel_perVeh="36.661409"/>
        </edge>
        <edge id="rend">
            <lane id="rend_0" sampledSeconds="3.33" CO_abs="249.542559" CO2_abs="17051.426018" HC_abs="4.470503" PMx_abs="1.518466" NOx_abs="35.854871" fuel_abs="6.798189"
            CO_normed="119.780428" CO2_normed="8184.684489" HC_normed="2.145842" PMx_normed="0.728864" NOx_normed="17.210338" fuel_normed="3.263131"
            traveltime="17.99" CO_perVeh="1349.652012" CO2_perVeh="92222.711488" HC_perVeh="24.178737" PMx_perVeh="8.212630" NOx_perVeh="193.921224" fuel_perVeh="36.768036"/>
        </edge>
    </interval>
    <interval begin="120.00" end="135.00" id="dump_15">
        <edge id="rend">
            <lane id="rend_0" sampledSeconds="14.84" CO_abs="1113.605973" CO2_abs="76093.512585" HC_abs="19.950021" PMx_abs="6.776290" NOx_abs="160.005565" fuel_abs="30.337527"
            CO_normed="534.530867" CO2_normed="36524.886041" HC_normed="9.576010" PMx_normed="3.252619" NOx_normed="76.802671" fuel_normed="14.562013"
            traveltime="17.99" CO_perVeh="1349.652012" CO2_perVeh="92222.711488" HC_perVeh="24.178737" PMx_perVeh="8.212630" NOx_perVeh="193.921224" fuel_perVeh="36.768036"/>
        </edge>
    </interval>
    <interval begin="120.00" end="135.00" id="dump_15_internal">
        <edge id="rend">
            <lane id="rend_0" sampledSeconds="14.84" CO_abs="1113.605973" CO2_abs="76093.512585" HC_abs="19.950021" PMx_abs="6.776290" NOx_abs="160.005565" fuel_abs="30.337527"
            CO_normed="534.530867" CO2_normed="36524.886041" HC_normed="9.576010" PMx_normed="3.252619" NOx_normed="76.802671" fuel_normed="14.562013"
            traveltime="17.99" CO_perVeh="1349.652012" CO2_perVeh="92222.711488" HC_perVeh="24.178737" PMx_perVeh="8.212630" NOx_perVeh="193.921224" fuel_perVeh="36.768036"/>
        </edge>
    </interval>
    <interval begin="135.00" end="150.00" id="dump_15"/>
    <interval begin="135.00" end="150.00" id="dump_15_internal"/>
</meandata>
