<?xml version="1.0" encoding="UTF-8"?>

<!-- generated on 05/02/13 14:14:26 by SUMO sumo Version 0.17.0
<?xml version="1.0" encoding="UTF-8"?>

<configuration xmlns:xsi="http://www.w3.org/2001/XMLSchema-instance" xsi:noNamespaceSchemaLocation="http://sumo.sf.net/xsd/sumoConfiguration.xsd">

    <input>
        <net-file value="net.net.xml"/>
        <additional-files value="input_routes.rou.xml,input_additional.add.xml"/>
    </input>

    <time>
        <begin value="0"/>
        <end value="150"/>
    </time>

    <report>
        <no-duration-log value="true"/>
        <no-step-log value="true"/>
    </report>

</configuration>
-->

<meandata xmlns:xsi="http://www.w3.org/2001/XMLSchema-instance" xsi:noNamespaceSchemaLocation="http://sumo.sf.net/xsd/meandata_file.xsd">
    <interval begin="0.00" end="15.00" id="dump_15">
        <edge id="beg">
            <lane id="beg_0" sampledSeconds="14.00" CO_abs="1963.129892" CO2_abs="112469.812119" HC_abs="38.472035" PMx_abs="15.013053" NOx_abs="253.411706" fuel_abs="44.840017"
            CO_normed="945.042973" CO2_normed="54142.523134" HC_normed="18.520286" PMx_normed="7.227224" NOx_normed="121.991394" fuel_normed="21.585807"
            traveltime="34.09" CO_perVeh="4780.025425" CO2_perVeh="273852.771291" HC_perVeh="93.675567" PMx_perVeh="36.555286" NOx_perVeh="617.032221" fuel_perVeh="109.180968"/>
        </edge>
    </interval>
    <interval begin="0.00" end="15.00" id="dump_15_internal">
        <edge id="beg">
            <lane id="beg_0" sampledSeconds="14.00" CO_abs="1963.129892" CO2_abs="112469.812119" HC_abs="38.472035" PMx_abs="15.013053" NOx_abs="253.411706" fuel_abs="44.840017"
            CO_normed="945.042973" CO2_normed="54142.523134" HC_normed="18.520286" PMx_normed="7.227224" NOx_normed="121.991394" fuel_normed="21.585807"
            traveltime="34.09" CO_perVeh="4780.025425" CO2_perVeh="273852.771291" HC_perVeh="93.675567" PMx_perVeh="36.555286" NOx_perVeh="617.032221" fuel_perVeh="109.180968"/>
        </edge>
    </interval>
    <interval begin="15.00" end="30.00" id="dump_15">
        <edge id="beg">
            <lane id="beg_0" sampledSeconds="11.60" CO_abs="459.155137" CO2_abs="28736.970996" HC_abs="8.538690" PMx_abs="2.613653" NOx_abs="61.356316" fuel_abs="11.457043"
            CO_normed="221.035469" CO2_normed="13833.864285" HC_normed="4.110492" PMx_normed="1.258202" NOx_normed="29.536688" fuel_normed="5.515375"
            traveltime="19.69" CO_perVeh="779.411409" CO2_perVeh="48780.730658" HC_perVeh="14.494344" PMx_perVeh="4.436651" NOx_perVeh="104.151754" fuel_perVeh="19.448219"/>
        </edge>
        <edge id="middle">
            <lane id="middle_0" sampledSeconds="3.31" CO_abs="21.759663" CO2_abs="3266.250948" HC_abs="0.785571" PMx_abs="0.245762" NOx_abs="6.107414" fuel_abs="1.302205"
            CO_normed="5.272407" CO2_normed="791.418705" HC_normed="0.190345" PMx_normed="0.059549" NOx_normed="1.479838" fuel_normed="0.315527"
            traveltime="75.36" CO_perVeh="495.502646" CO2_perVeh="74377.805622" HC_perVeh="17.888729" PMx_perVeh="5.596409" NOx_perVeh="139.075665" fuel_perVeh="29.653311"/>
        </edge>
    </interval>
    <interval begin="15.00" end="30.00" id="dump_15_internal">
        <edge id=":beg_0">
            <lane id=":beg_0_0" sampledSeconds="0.83" CO_abs="0" CO2_abs="0" HC_abs="0" PMx_abs="0" NOx_abs="0" fuel_abs="0"
            CO_normed="0" CO2_normed="0" HC_normed="0" PMx_normed="0" NOx_normed="0" fuel_normed="0"
            traveltime="0.46" CO_perVeh="0" CO2_perVeh="0" HC_perVeh="0" PMx_perVeh="0" NOx_perVeh="0" fuel_perVeh="0"/>
        </edge>
        <edge id="beg">
            <lane id="beg_0" sampledSeconds="11.60" CO_abs="459.155137" CO2_abs="28736.970996" HC_abs="8.538690" PMx_abs="2.613653" NOx_abs="61.356316" fuel_abs="11.457043"
            CO_normed="221.035469" CO2_normed="13833.864285" HC_normed="4.110492" PMx_normed="1.258202" NOx_normed="29.536688" fuel_normed="5.515375"
            traveltime="19.69" CO_perVeh="779.411409" CO2_perVeh="48780.730658" HC_perVeh="14.494344" PMx_perVeh="4.436651" NOx_perVeh="104.151754" fuel_perVeh="19.448219"/>
        </edge>
        <edge id="middle">
            <lane id="middle_0" sampledSeconds="3.31" CO_abs="21.759663" CO2_abs="3266.250948" HC_abs="0.785571" PMx_abs="0.245762" NOx_abs="6.107414" fuel_abs="1.302205"
            CO_normed="5.272407" CO2_normed="791.418705" HC_normed="0.190345" PMx_normed="0.059549" NOx_normed="1.479838" fuel_normed="0.315527"
            traveltime="75.36" CO_perVeh="495.502646" CO2_perVeh="74377.805622" HC_perVeh="17.888729" PMx_perVeh="5.596409" NOx_perVeh="139.075665" fuel_perVeh="29.653311"/>
        </edge>
    </interval>
    <interval begin="30.00" end="45.00" id="dump_15">
        <edge id="middle">
            <lane id="middle_0" sampledSeconds="15.00" CO_abs="162.664899" CO2_abs="27653.179353" HC_abs="6.333070" PMx_abs="2.123967" NOx_abs="51.317967" fuel_abs="11.024908"
            CO_normed="39.414009" CO2_normed="6700.417006" HC_normed="1.534515" PMx_normed="0.514641" NOx_normed="12.434439" fuel_normed="2.671356"
            traveltime="73.84" CO_perVeh="800.791922" CO2_perVeh="136135.348184" HC_perVeh="31.177417" PMx_perVeh="10.456193" NOx_perVeh="252.636026" fuel_perVeh="54.275122"/>
        </edge>
    </interval>
    <interval begin="30.00" end="45.00" id="dump_15_internal">
        <edge id="middle">
            <lane id="middle_0" sampledSeconds="15.00" CO_abs="162.664899" CO2_abs="27653.179353" HC_abs="6.333070" PMx_abs="2.123967" NOx_abs="51.317967" fuel_abs="11.024908"
            CO_normed="39.414009" CO2_normed="6700.417006" HC_normed="1.534515" PMx_normed="0.514641" NOx_normed="12.434439" fuel_normed="2.671356"
            traveltime="73.84" CO_perVeh="800.791922" CO2_perVeh="136135.348184" HC_perVeh="31.177417" PMx_perVeh="10.456193" NOx_perVeh="252.636026" fuel_perVeh="54.275122"/>
        </edge>
    </interval>
    <interval begin="45.00" end="60.00" id="dump_15">
        <edge id="middle">
            <lane id="middle_0" sampledSeconds="15.00" CO_abs="105.493898" CO2_abs="18345.685571" HC_abs="4.203625" PMx_abs="1.379552" NOx_abs="33.929215" fuel_abs="7.314150"
            CO_normed="25.561369" CO2_normed="4445.193879" HC_normed="1.018546" PMx_normed="0.334268" NOx_normed="8.221112" fuel_normed="1.772232"
            traveltime="75.00" CO_perVeh="527.459147" CO2_perVeh="91726.628951" HC_perVeh="21.017712" PMx_perVeh="6.897623" NOx_perVeh="169.642748" fuel_perVeh="36.570031"/>
        </edge>
    </interval>
    <interval begin="45.00" end="60.00" id="dump_15_internal">
        <edge id="middle">
            <lane id="middle_0" sampledSeconds="15.00" CO_abs="105.493898" CO2_abs="18345.685571" HC_abs="4.203625" PMx_abs="1.379552" NOx_abs="33.929215" fuel_abs="7.314150"
            CO_normed="25.561369" CO2_normed="4445.193879" HC_normed="1.018546" PMx_normed="0.334268" NOx_normed="8.221112" fuel_normed="1.772232"
            traveltime="75.00" CO_perVeh="527.459147" CO2_perVeh="91726.628951" HC_perVeh="21.017712" PMx_perVeh="6.897623" NOx_perVeh="169.642748" fuel_perVeh="36.570031"/>
        </edge>
    </interval>
    <interval begin="60.00" end="75.00" id="dump_15">
        <edge id="middle">
            <lane id="middle_0" sampledSeconds="15.00" CO_abs="162.592130" CO2_abs="21096.836022" HC_abs="5.254531" PMx_abs="1.733586" NOx_abs="40.337405" fuel_abs="8.410991"
            CO_normed="39.396377" CO2_normed="5111.802772" HC_normed="1.273183" PMx_normed="0.420051" NOx_normed="9.773829" fuel_normed="2.037999"
            traveltime="74.15" CO_perVeh="803.769904" CO2_perVeh="104291.652145" HC_perVeh="25.975633" PMx_perVeh="8.569936" NOx_perVeh="199.406896" fuel_perVeh="41.579510"/>
        </edge>
    </interval>
    <interval begin="60.00" end="75.00" id="dump_15_internal">
        <edge id="middle">
            <lane id="middle_0" sampledSeconds="15.00" CO_abs="162.592130" CO2_abs="21096.836022" HC_abs="5.254531" PMx_abs="1.733586" NOx_abs="40.337405" fuel_abs="8.410991"
            CO_normed="39.396377" CO2_normed="5111.802772" HC_normed="1.273183" PMx_normed="0.420051" NOx_normed="9.773829" fuel_normed="2.037999"
            traveltime="74.15" CO_perVeh="803.769904" CO2_perVeh="104291.652145" HC_perVeh="25.975633" PMx_perVeh="8.569936" NOx_perVeh="199.406896" fuel_perVeh="41.579510"/>
        </edge>
    </interval>
    <interval begin="75.00" end="90.00" id="dump_15">
        <edge id="middle">
            <lane id="middle_0" sampledSeconds="15.00" CO_abs="59.561205" CO2_abs="22734.093794" HC_abs="4.447783" PMx_abs="1.493441" NOx_abs="39.865661" fuel_abs="9.063745"
            CO_normed="14.431791" CO2_normed="5508.513388" HC_normed="1.077706" PMx_normed="0.361864" NOx_normed="9.659524" fuel_normed="2.196162"
            traveltime="74.09" CO_perVeh="294.178491" CO2_perVeh="112285.864960" HC_perVeh="21.968026" PMx_perVeh="7.376250" NOx_perVeh="196.900314" fuel_perVeh="44.766703"/>
        </edge>
    </interval>
    <interval begin="75.00" end="90.00" id="dump_15_internal">
        <edge id="middle">
            <lane id="middle_0" sampledSeconds="15.00" CO_abs="59.561205" CO2_abs="22734.093794" HC_abs="4.447783" PMx_abs="1.493441" NOx_abs="39.865661" fuel_abs="9.063745"
            CO_normed="14.431791" CO2_normed="5508.513388" HC_normed="1.077706" PMx_normed="0.361864" NOx_normed="9.659524" fuel_normed="2.196162"
            traveltime="74.09" CO_perVeh="294.178491" CO2_perVeh="112285.864960" HC_perVeh="21.968026" PMx_perVeh="7.376250" NOx_perVeh="196.900314" fuel_perVeh="44.766703"/>
        </edge>
    </interval>
    <interval begin="90.00" end="105.00" id="dump_15">
        <edge id="end">
            <lane id="end_0" sampledSeconds="1.14" CO_abs="74.243201" CO2_abs="5261.612032" HC_abs="1.717562" PMx_abs="0.635230" NOx_abs="11.193113" fuel_abs="2.097723"
            CO_normed="35.740384" CO2_normed="2532.919241" HC_normed="0.826828" PMx_normed="0.305797" NOx_normed="5.388320" fuel_normed="1.009836"
            traveltime="55.61" CO_perVeh="3615.269615" CO2_perVeh="256213.980841" HC_perVeh="83.636614" PMx_perVeh="30.932501" NOx_perVeh="545.048174" fuel_perVeh="102.148541"/>
        </edge>
        <edge id="middle">
            <lane id="middle_0" sampledSeconds="13.69" CO_abs="155.981315" CO2_abs="20499.205729" HC_abs="5.228710" PMx_abs="1.791625" NOx_abs="39.104267" fuel_abs="8.172723"
            CO_normed="37.794564" CO2_normed="4966.995835" HC_normed="1.266926" PMx_normed="0.434114" NOx_normed="9.475037" fuel_normed="1.980266"
            traveltime="89.36" CO_perVeh="1017.845568" CO2_perVeh="133766.186250" HC_perVeh="34.119596" PMx_perVeh="11.691131" NOx_perVeh="255.172264" fuel_perVeh="53.330552"/>
        </edge>
    </interval>
    <interval begin="90.00" end="105.00" id="dump_15_internal">
        <edge id=":end_1">
            <lane id=":end_1_0" sampledSeconds="1.42" CO_abs="67.369377" CO2_abs="5275.217868" HC_abs="1.691751" PMx_abs="0.582995" NOx_abs="10.873239" fuel_abs="2.103148"
            CO_normed="2607.846840" CO2_normed="204201.981992" HC_normed="65.487135" PMx_normed="22.567559" NOx_normed="420.899586" fuel_normed="81.412161"
            traveltime="0.78" CO_perVeh="37.293762" CO2_perVeh="2920.209891" HC_perVeh="0.936505" PMx_perVeh="0.322730" NOx_perVeh="6.019115" fuel_perVeh="1.164242"/>
        </edge>
        <edge id="end">
            <lane id="end_0" sampledSeconds="1.14" CO_abs="74.243201" CO2_abs="5261.612032" HC_abs="1.717562" PMx_abs="0.635230" NOx_abs="11.193113" fuel_abs="2.097723"
            CO_normed="35.740384" CO2_normed="2532.919241" HC_normed="0.826828" PMx_normed="0.305797" NOx_normed="5.388320" fuel_normed="1.009836"
            traveltime="55.61" CO_perVeh="3615.269615" CO2_perVeh="256213.980841" HC_perVeh="83.636614" PMx_perVeh="30.932501" NOx_perVeh="545.048174" fuel_perVeh="102.148541"/>
        </edge>
        <edge id="middle">
            <lane id="middle_0" sampledSeconds="13.69" CO_abs="155.981315" CO2_abs="20499.205729" HC_abs="5.228710" PMx_abs="1.791625" NOx_abs="39.104267" fuel_abs="8.172723"
            CO_normed="37.794564" CO2_normed="4966.995835" HC_normed="1.266926" PMx_normed="0.434114" NOx_normed="9.475037" fuel_normed="1.980266"
            traveltime="89.36" CO_perVeh="1017.845568" CO2_perVeh="133766.186250" HC_perVeh="34.119596" PMx_perVeh="11.691131" NOx_perVeh="255.172264" fuel_perVeh="53.330552"/>
        </edge>
    </interval>
    <interval begin="105.00" end="120.00" id="dump_15">
        <edge id="end">
            <lane id="end_0" sampledSeconds="15.00" CO_abs="2010.245753" CO2_abs="115343.198137" HC_abs="38.359293" PMx_abs="14.492784" NOx_abs="258.797860" fuel_abs="45.985630"
            CO_normed="967.724362" CO2_normed="55525.759809" HC_normed="18.466012" PMx_normed="6.976769" NOx_normed="124.584267" fuel_normed="22.137300"
            traveltime="22.50" CO_perVeh="3015.396902" CO2_perVeh="173016.419437" HC_perVeh="57.539479" PMx_perVeh="21.739380" NOx_perVeh="388.200430" fuel_perVeh="68.979091"/>
        </edge>
    </interval>
    <interval begin="105.00" end="120.00" id="dump_15_internal">
        <edge id="end">
            <lane id="end_0" sampledSeconds="15.00" CO_abs="2010.245753" CO2_abs="115343.198137" HC_abs="38.359293" PMx_abs="14.492784" NOx_abs="258.797860" fuel_abs="45.985630"
            CO_normed="967.724362" CO2_normed="55525.759809" HC_normed="18.466012" PMx_normed="6.976769" NOx_normed="124.584267" fuel_normed="22.137300"
            traveltime="22.50" CO_perVeh="3015.396902" CO2_perVeh="173016.419437" HC_perVeh="57.539479" PMx_perVeh="21.739380" NOx_perVeh="388.200430" fuel_perVeh="68.979091"/>
        </edge>
    </interval>
    <interval begin="120.00" end="135.00" id="dump_15">
        <edge id="end">
            <lane id="end_0" sampledSeconds="5.92" CO_abs="237.183574" CO2_abs="14790.779642" HC_abs="4.429229" PMx_abs="1.338213" NOx_abs="31.580910" fuel_abs="5.896883"
            CO_normed="114.179235" CO2_normed="7120.222874" HC_normed="2.132213" PMx_normed="0.644211" NOx_normed="15.202926" fuel_normed="2.838736"
            traveltime="18.35" CO_perVeh="734.695097" CO2_perVeh="45815.623369" HC_perVeh="13.719892" PMx_perVeh="4.145222" NOx_perVeh="97.824397" fuel_perVeh="18.266068"/>
        </edge>
        <edge id="rend">
            <lane id="rend_0" sampledSeconds="9.26" CO_abs="537.602589" CO2_abs="34399.223700" HC_abs="10.068772" PMx_abs="3.113308" NOx_abs="73.167131" fuel_abs="13.714507"
            CO_normed="258.049243" CO2_normed="16511.627376" HC_normed="4.833010" PMx_normed="1.494388" NOx_normed="35.120223" fuel_normed="6.582963"
            traveltime="18.44" CO_perVeh="1070.207825" CO2_perVeh="68478.685123" HC_perVeh="20.043948" PMx_perVeh="6.197676" NOx_perVeh="145.654128" fuel_perVeh="27.301529"/>
        </edge>
    </interval>
    <interval begin="120.00" end="135.00" id="dump_15_internal">
        <edge id=":absEnd_0">
            <lane id=":absEnd_0_0" sampledSeconds="0.19" CO_abs="0" CO2_abs="0" HC_abs="0" PMx_abs="0" NOx_abs="0" fuel_abs="0"
            CO_normed="0" CO2_normed="0" HC_normed="0" PMx_normed="0" NOx_normed="0" fuel_normed="0"
            traveltime="3.769556e-003" CO_perVeh="0" CO2_perVeh="0" HC_perVeh="0" PMx_perVeh="0" NOx_perVeh="0" fuel_perVeh="0"/>
        </edge>
        <edge id="end">
            <lane id="end_0" sampledSeconds="5.92" CO_abs="237.183574" CO2_abs="14790.779642" HC_abs="4.429229" PMx_abs="1.338213" NOx_abs="31.580910" fuel_abs="5.896883"
            CO_normed="114.179235" CO2_normed="7120.222874" HC_normed="2.132213" PMx_normed="0.644211" NOx_normed="15.202926" fuel_normed="2.838736"
            traveltime="18.35" CO_perVeh="734.695097" CO2_perVeh="45815.623369" HC_perVeh="13.719892" PMx_perVeh="4.145222" NOx_perVeh="97.824397" fuel_perVeh="18.266068"/>
        </edge>
        <edge id="rend">
            <lane id="rend_0" sampledSeconds="9.26" CO_abs="537.602589" CO2_abs="34399.223700" HC_abs="10.068772" PMx_abs="3.113308" NOx_abs="73.167131" fuel_abs="13.714507"
            CO_normed="258.049243" CO2_normed="16511.627376" HC_normed="4.833010" PMx_normed="1.494388" NOx_normed="35.120223" fuel_normed="6.582963"
            traveltime="18.44" CO_perVeh="1070.207825" CO2_perVeh="68478.685123" HC_perVeh="20.043948" PMx_perVeh="6.197676" NOx_perVeh="145.654128" fuel_perVeh="27.301529"/>
        </edge>
    </interval>
    <interval begin="135.00" end="150.00" id="dump_15">
        <edge id="rend">
            <lane id="rend_0" sampledSeconds="9.40" CO_abs="501.599445" CO2_abs="33369.852902" HC_abs="9.397608" PMx_abs="2.932552" NOx_abs="70.359799" fuel_abs="13.304118"
            CO_normed="240.767734" CO2_normed="16017.529393" HC_normed="4.510852" PMx_normed="1.407625" NOx_normed="33.772704" fuel_normed="6.385977"
            traveltime="18.52" CO_perVeh="988.051580" CO2_perVeh="65732.002356" HC_perVeh="18.511427" PMx_perVeh="5.776547" NOx_perVeh="138.594872" fuel_perVeh="26.206479"/>
        </edge>
    </interval>
    <interval begin="135.00" end="150.00" id="dump_15_internal">
        <edge id="rend">
            <lane id="rend_0" sampledSeconds="9.40" CO_abs="501.599445" CO2_abs="33369.852902" HC_abs="9.397608" PMx_abs="2.932552" NOx_abs="70.359799" fuel_abs="13.304118"
            CO_normed="240.767734" CO2_normed="16017.529393" HC_normed="4.510852" PMx_normed="1.407625" NOx_normed="33.772704" fuel_normed="6.385977"
            traveltime="18.52" CO_perVeh="988.051580" CO2_perVeh="65732.002356" HC_perVeh="18.511427" PMx_perVeh="5.776547" NOx_perVeh="138.594872" fuel_perVeh="26.206479"/>
        </edge>
    </interval>
</meandata>
