<?xml version="1.0"?>

<!-- generated on Mon Sep  3 11:09:25 2012 by SUMO sumo Version dev-SVN-r12643
<?xml version="1.0" encoding="UTF-8"?>

<configuration xmlns:xsi="http://www.w3.org/2001/XMLSchema-instance" xsi:noNamespaceSchemaLocation="http://sumo.sf.net/xsd/sumoConfiguration.xsd">

    <input>
        <net-file value="net.net.xml"/>
        <route-files value="input_routes.rou.xml"/>
    </input>

    <output>
        <vehroute-output value="vehroutes.xml"/>
        <vehroute-output.exit-times value="true"/>
        <vehroute-output.sorted value="true"/>
    </output>

    <report>
        <no-duration-log value="true"/>
        <no-step-log value="true"/>
    </report>

</configuration>
-->

<routes>
    <vehicle id="stopped" depart="1.00" arrival="633.00">
        <route edges="1fi 1si 1o 1fi 1si" exitTimes="27.00 551.00 598.00 622.00 633.00"/>
    </vehicle>

    <vehicle id="overtaking_right" depart="10.00" arrival="637.00">
        <route edges="1fi 1si 1o 1fi 1si" exitTimes="37.00 75.00 123.00 147.00 165.00"/>
    </vehicle>

</routes>
