<?xml version="1.0" encoding="UTF-8"?>

<!-- generated on 2025-04-22 20:30:18 by Eclipse SUMO sumo Version v1_22_0+1646-d8cbcaf97a5
This data file and the accompanying materials
are made available under the terms of the Eclipse Public License v2.0
which accompanies this distribution, and is available at
http://www.eclipse.org/legal/epl-v20.html
This file may also be made available under the following Secondary
Licenses when the conditions for such availability set forth in the Eclipse
Public License 2.0 are satisfied: GNU General Public License, version 2
or later which is available at
https://www.gnu.org/licenses/old-licenses/gpl-2.0-standalone.html
SPDX-License-Identifier: EPL-2.0 OR GPL-2.0-or-later
<sumoConfiguration xmlns:xsi="http://www.w3.org/2001/XMLSchema-instance" xsi:noNamespaceSchemaLocation="http://sumo.dlr.de/xsd/sumoConfiguration.xsd">

    <input>
        <net-file value="net.net.xml"/>
        <additional-files value="input_routes.rou.xml,input_additional.add.xml,input_additional2.add.xml"/>
    </input>

    <output>
        <write-license value="true"/>
    </output>

    <time>
        <begin value="0"/>
        <end value="1000"/>
    </time>

    <processing>
        <time-to-teleport value="-1"/>
        <default.speeddev value="0"/>
    </processing>

    <report>
        <xml-validation value="never"/>
        <duration-log.disable value="true"/>
        <no-step-log value="true"/>
    </report>

    <mesoscopic>
        <mesosim value="true"/>
    </mesoscopic>

</sumoConfiguration>
-->

<meandata xmlns:xsi="http://www.w3.org/2001/XMLSchema-instance" xsi:noNamespaceSchemaLocation="http://sumo.dlr.de/xsd/meandata_file.xsd">
    <interval begin="600.00" end="660.00" id="dump_60">
        <edge id="2/1to1/1" sampledSeconds="780.00" CO_abs="0.000298" CO2_abs="1186988.021690" HC_abs="0.000002" PMx_abs="1.009950" NOx_abs="477.126005" fuel_abs="384815.109790" electricity_abs="0"
            CO_normed="0.000045" CO2_normed="178048.203254" HC_normed="3.118050e-07" PMx_normed="0.151493" NOx_normed="71.568901" fuel_normed="57722.266468" electricity_normed="0"
            traveltime="8000.00" CO_perVeh="0.003059" CO2_perVeh="12174236.119900" HC_perVeh="0.000021" PMx_perVeh="10.358464" NOx_perVeh="4893.600055" fuel_perVeh="3946821.638870" electricity_perVeh="0"/>
        <edge id="3/1to2/1" sampledSeconds="3120.00" CO_abs="0.001533" CO2_abs="4748161.204726" HC_abs="0.000011" PMx_abs="4.387231" NOx_abs="1908.504027" fuel_abs="1539328.231475" electricity_abs="0"
            CO_normed="0.000230" CO2_normed="712224.180709" HC_normed="0.000002" PMx_normed="0.658085" NOx_normed="286.275604" fuel_normed="230899.234721" electricity_normed="0"
            traveltime="7366.62" CO_perVeh="0.003620" CO2_perVeh="11210871.582725" HC_perVeh="0.000025" PMx_perVeh="10.358679" NOx_perVeh="4506.164101" fuel_perVeh="3634504.049599" electricity_perVeh="0"/>
        <edge id="4/1to3/1" sampledSeconds="780.00" CO_abs="0.000480" CO2_abs="1187092.723289" HC_abs="0.000003" PMx_abs="1.183904" NOx_abs="477.126009" fuel_abs="384849.052181" electricity_abs="0"
            CO_normed="0.000072" CO2_normed="178063.908493" HC_normed="5.022736e-07" PMx_normed="0.177586" NOx_normed="71.568901" fuel_normed="57727.357827" electricity_normed="0"
            traveltime="6824.82" CO_perVeh="0.004204" CO2_perVeh="10386788.155616" HC_perVeh="0.000029" PMx_perVeh="10.358889" NOx_perVeh="4174.742779" fuel_perVeh="3367340.645320" electricity_perVeh="0"/>
    </interval>
</meandata>
