<?xml version="1.0" encoding="UTF-8"?>

<!-- generated on 2026-03-14T06:08:08.886675+01:00 by Eclipse SUMO sumo v1_26_0+0586-69dd46f7418
This data file and the accompanying materials
are made available under the terms of the Eclipse Public License v2.0
which accompanies this distribution, and is available at
http://www.eclipse.org/legal/epl-v20.html
This file may also be made available under the following Secondary
Licenses when the conditions for such availability set forth in the Eclipse
Public License 2.0 are satisfied: GNU General Public License, version 2
or later which is available at
https://www.gnu.org/licenses/old-licenses/gpl-2.0-standalone.html
SPDX-License-Identifier: EPL-2.0 OR GPL-2.0-or-later
<sumoConfiguration xmlns:xsi="http://www.w3.org/2001/XMLSchema-instance" xsi:noNamespaceSchemaLocation="http://sumo.dlr.de/xsd/sumoConfiguration.xsd">

    <input>
        <net-file value="net.net.xml"/>
        <additional-files value="input_routes.rou.xml"/>
    </input>

    <output>
        <write-license value="true"/>
        <fcd-output value="fcd.xml"/>
        <fcd-output.attributes value="speed,pos,lane,edge"/>
    </output>

    <time>
        <begin value="0"/>
        <end value="1000"/>
    </time>

    <processing>
        <default.speeddev value="0"/>
    </processing>

    <report>
        <xml-validation value="never"/>
        <duration-log.disable value="true"/>
        <no-step-log value="true"/>
    </report>

</sumoConfiguration>
-->

<fcd-export xmlns:xsi="http://www.w3.org/2001/XMLSchema-instance" xsi:noNamespaceSchemaLocation="http://sumo.dlr.de/xsd/fcd_file.xsd">
    <timestep time="0.00">
        <vehicle id="441" speed="30.00" pos="0.00" lane="gneE2_0"/>
    </timestep>
    <timestep time="1.00">
        <vehicle id="441" speed="29.52" pos="29.52" lane="gneE2_0"/>
    </timestep>
    <timestep time="2.00">
        <vehicle id="441" speed="29.83" pos="59.35" lane="gneE2_0"/>
    </timestep>
    <timestep time="3.00">
        <vehicle id="441" speed="29.23" pos="88.58" lane="gneE2_0"/>
    </timestep>
    <timestep time="4.00">
        <vehicle id="441" speed="29.51" pos="118.09" lane="gneE2_0"/>
    </timestep>
    <timestep time="5.00">
        <vehicle id="441" speed="29.87" pos="147.96" lane="gneE2_0"/>
    </timestep>
    <timestep time="6.00">
        <vehicle id="441" speed="29.91" pos="177.87" lane="gneE2_0"/>
    </timestep>
    <timestep time="7.00">
        <vehicle id="441" speed="29.13" pos="206.99" lane="gneE2_0"/>
    </timestep>
    <timestep time="8.00">
        <vehicle id="441" speed="29.87" pos="236.86" lane="gneE2_0"/>
    </timestep>
    <timestep time="9.00">
        <vehicle id="441" speed="29.26" pos="266.12" lane="gneE2_0"/>
    </timestep>
    <timestep time="10.00">
        <vehicle id="441" speed="29.84" pos="295.96" lane="gneE2_0"/>
    </timestep>
    <timestep time="11.00">
        <vehicle id="441" speed="29.61" pos="325.56" lane="gneE2_0"/>
    </timestep>
    <timestep time="12.00">
        <vehicle id="441" speed="29.73" pos="355.30" lane="gneE2_0"/>
    </timestep>
    <timestep time="13.00">
        <vehicle id="441" speed="29.17" pos="384.46" lane="gneE2_0"/>
    </timestep>
    <timestep time="14.00">
        <vehicle id="441" speed="29.73" pos="414.20" lane="gneE2_0"/>
    </timestep>
    <timestep time="15.00">
        <vehicle id="441" speed="29.47" pos="443.67" lane="gneE2_0"/>
    </timestep>
    <timestep time="16.00">
        <vehicle id="441" speed="28.70" pos="472.37" lane="gneE2_0"/>
    </timestep>
    <timestep time="17.00">
        <vehicle id="441" speed="29.98" pos="502.35" lane="gneE2_0"/>
    </timestep>
    <timestep time="18.00">
        <vehicle id="441" speed="29.85" pos="532.20" lane="gneE2_0"/>
    </timestep>
    <timestep time="19.00">
        <vehicle id="441" speed="28.71" pos="560.92" lane="gneE2_0"/>
    </timestep>
    <timestep time="20.00">
        <vehicle id="441" speed="28.87" pos="589.79" lane="gneE2_0"/>
    </timestep>
    <timestep time="21.00">
        <vehicle id="441" speed="29.08" pos="618.87" lane="gneE2_0"/>
    </timestep>
    <timestep time="22.00">
        <vehicle id="441" speed="29.90" pos="648.77" lane="gneE2_0"/>
    </timestep>
    <timestep time="23.00">
        <vehicle id="441" speed="30.00" pos="678.76" lane="gneE2_0"/>
    </timestep>
    <timestep time="24.00">
        <vehicle id="441" speed="29.14" pos="707.90" lane="gneE2_0"/>
    </timestep>
    <timestep time="25.00">
        <vehicle id="441" speed="28.73" pos="736.63" lane="gneE2_0"/>
    </timestep>
    <timestep time="26.00">
        <vehicle id="441" speed="29.32" pos="765.95" lane="gneE2_0"/>
    </timestep>
    <timestep time="27.00">
        <vehicle id="441" speed="29.50" pos="795.45" lane="gneE2_0"/>
    </timestep>
    <timestep time="28.00">
        <vehicle id="441" speed="28.88" pos="824.34" lane="gneE2_0"/>
    </timestep>
    <timestep time="29.00">
        <vehicle id="441" speed="29.69" pos="854.03" lane="gneE2_0"/>
    </timestep>
    <timestep time="30.00">
        <vehicle id="441" speed="29.20" pos="883.23" lane="gneE2_0"/>
    </timestep>
    <timestep time="31.00">
        <vehicle id="441" speed="28.84" pos="912.07" lane="gneE2_0"/>
    </timestep>
    <timestep time="32.00">
        <vehicle id="441" speed="29.25" pos="941.32" lane="gneE2_0"/>
    </timestep>
    <timestep time="33.00">
        <vehicle id="441" speed="29.40" pos="970.72" lane="gneE2_0"/>
    </timestep>
    <timestep time="34.00">
        <vehicle id="441" speed="29.27" pos="999.99" lane="gneE2_0"/>
    </timestep>
    <timestep time="35.00">
        <vehicle id="441" speed="29.56" pos="1029.54" lane="gneE2_0"/>
    </timestep>
    <timestep time="36.00">
        <vehicle id="441" speed="29.74" pos="1059.28" lane="gneE2_0"/>
    </timestep>
    <timestep time="37.00">
        <vehicle id="441" speed="29.26" pos="1088.54" lane="gneE2_0"/>
    </timestep>
    <timestep time="38.00">
        <vehicle id="441" speed="28.75" pos="1117.29" lane="gneE2_0"/>
    </timestep>
    <timestep time="39.00">
        <vehicle id="441" speed="29.10" pos="1146.39" lane="gneE2_0"/>
    </timestep>
    <timestep time="40.00">
        <vehicle id="441" speed="28.80" pos="1175.20" lane="gneE2_0"/>
    </timestep>
    <timestep time="41.00">
        <vehicle id="441" speed="29.80" pos="1205.00" lane="gneE2_0"/>
    </timestep>
    <timestep time="42.00">
        <vehicle id="441" speed="29.31" pos="1234.30" lane="gneE2_0"/>
    </timestep>
    <timestep time="43.00">
        <vehicle id="441" speed="29.88" pos="1264.19" lane="gneE2_0"/>
    </timestep>
    <timestep time="44.00">
        <vehicle id="441" speed="29.32" pos="1293.51" lane="gneE2_0"/>
    </timestep>
    <timestep time="45.00">
        <vehicle id="441" speed="29.15" pos="1322.66" lane="gneE2_0"/>
    </timestep>
    <timestep time="46.00">
        <vehicle id="441" speed="28.87" pos="1351.53" lane="gneE2_0"/>
    </timestep>
    <timestep time="47.00">
        <vehicle id="441" speed="29.97" pos="1381.50" lane="gneE2_0"/>
    </timestep>
    <timestep time="48.00">
        <vehicle id="441" speed="28.92" pos="1410.42" lane="gneE2_0"/>
    </timestep>
    <timestep time="49.00">
        <vehicle id="441" speed="29.71" pos="1440.13" lane="gneE2_0"/>
    </timestep>
    <timestep time="50.00">
        <vehicle id="441" speed="28.90" pos="1469.04" lane="gneE2_0"/>
    </timestep>
    <timestep time="51.00">
        <vehicle id="441" speed="29.55" pos="1498.58" lane="gneE2_0"/>
    </timestep>
    <timestep time="52.00">
        <vehicle id="441" speed="29.52" pos="1528.11" lane="gneE2_0"/>
    </timestep>
    <timestep time="53.00">
        <vehicle id="441" speed="28.91" pos="1557.01" lane="gneE2_0"/>
    </timestep>
    <timestep time="54.00">
        <vehicle id="441" speed="29.40" pos="1586.41" lane="gneE2_0"/>
    </timestep>
    <timestep time="55.00">
        <vehicle id="441" speed="29.32" pos="1615.74" lane="gneE2_0"/>
    </timestep>
    <timestep time="56.00">
        <vehicle id="441" speed="29.22" pos="1644.96" lane="gneE2_0"/>
    </timestep>
    <timestep time="57.00">
        <vehicle id="441" speed="29.65" pos="1674.61" lane="gneE2_0"/>
    </timestep>
    <timestep time="58.00">
        <vehicle id="441" speed="29.36" pos="1703.97" lane="gneE2_0"/>
    </timestep>
    <timestep time="59.00">
        <vehicle id="441" speed="28.82" pos="1732.79" lane="gneE2_0"/>
    </timestep>
    <timestep time="60.00">
        <vehicle id="441" speed="29.44" pos="1762.22" lane="gneE2_0"/>
    </timestep>
    <timestep time="61.00">
        <vehicle id="441" speed="29.71" pos="1791.93" lane="gneE2_0"/>
    </timestep>
    <timestep time="62.00">
        <vehicle id="441" speed="28.82" pos="1820.75" lane="gneE2_0"/>
    </timestep>
    <timestep time="63.00">
        <vehicle id="441" speed="29.63" pos="1850.38" lane="gneE2_0"/>
    </timestep>
    <timestep time="64.00">
        <vehicle id="441" speed="28.85" pos="1879.23" lane="gneE2_0"/>
    </timestep>
    <timestep time="65.00">
        <vehicle id="441" speed="29.67" pos="1908.91" lane="gneE2_0"/>
    </timestep>
    <timestep time="66.00">
        <vehicle id="441" speed="29.18" pos="1938.08" lane="gneE2_0"/>
    </timestep>
    <timestep time="67.00">
        <vehicle id="441" speed="29.42" pos="1967.50" lane="gneE2_0"/>
    </timestep>
    <timestep time="68.00">
        <vehicle id="441" speed="29.03" pos="1996.53" lane="gneE2_0"/>
    </timestep>
    <timestep time="69.00">
        <vehicle id="441" speed="29.13" pos="2025.66" lane="gneE2_0"/>
    </timestep>
    <timestep time="70.00">
        <vehicle id="441" speed="29.09" pos="2054.75" lane="gneE2_0"/>
    </timestep>
    <timestep time="71.00">
        <vehicle id="441" speed="29.66" pos="2084.41" lane="gneE2_0"/>
    </timestep>
    <timestep time="72.00">
        <vehicle id="441" speed="29.45" pos="2113.86" lane="gneE2_0"/>
    </timestep>
    <timestep time="73.00">
        <vehicle id="441" speed="29.39" pos="2143.25" lane="gneE2_0"/>
    </timestep>
    <timestep time="74.00">
        <vehicle id="441" speed="29.23" pos="2172.48" lane="gneE2_0"/>
    </timestep>
    <timestep time="75.00">
        <vehicle id="441" speed="29.53" pos="2202.01" lane="gneE2_0"/>
    </timestep>
    <timestep time="76.00">
        <vehicle id="441" speed="29.35" pos="2231.37" lane="gneE2_0"/>
    </timestep>
    <timestep time="77.00">
        <vehicle id="441" speed="28.76" pos="2260.12" lane="gneE2_0"/>
    </timestep>
    <timestep time="78.00">
        <vehicle id="441" speed="28.73" pos="2288.85" lane="gneE2_0"/>
    </timestep>
    <timestep time="79.00">
        <vehicle id="441" speed="28.78" pos="2317.63" lane="gneE2_0"/>
    </timestep>
    <timestep time="80.00">
        <vehicle id="441" speed="29.45" pos="2347.09" lane="gneE2_0"/>
    </timestep>
    <timestep time="81.00">
        <vehicle id="441" speed="28.77" pos="2375.86" lane="gneE2_0"/>
    </timestep>
    <timestep time="82.00">
        <vehicle id="441" speed="29.63" pos="2405.49" lane="gneE2_0"/>
    </timestep>
    <timestep time="83.00">
        <vehicle id="441" speed="28.95" pos="2434.43" lane="gneE2_0"/>
    </timestep>
    <timestep time="84.00">
        <vehicle id="441" speed="28.89" pos="2463.33" lane="gneE2_0"/>
    </timestep>
    <timestep time="85.00">
        <vehicle id="441" speed="29.23" pos="2492.56" lane="gneE2_0"/>
    </timestep>
    <timestep time="86.00">
        <vehicle id="441" speed="29.57" pos="2522.13" lane="gneE2_0"/>
    </timestep>
    <timestep time="87.00">
        <vehicle id="441" speed="29.17" pos="2551.30" lane="gneE2_0"/>
    </timestep>
    <timestep time="88.00">
        <vehicle id="441" speed="29.14" pos="2580.44" lane="gneE2_0"/>
    </timestep>
    <timestep time="89.00">
        <vehicle id="441" speed="29.61" pos="2610.05" lane="gneE2_0"/>
    </timestep>
    <timestep time="90.00">
        <vehicle id="441" speed="29.65" pos="2639.70" lane="gneE2_0"/>
    </timestep>
    <timestep time="91.00">
        <vehicle id="441" speed="29.75" pos="2669.45" lane="gneE2_0"/>
    </timestep>
    <timestep time="92.00">
        <vehicle id="441" speed="29.93" pos="2699.38" lane="gneE2_0"/>
    </timestep>
    <timestep time="93.00">
        <vehicle id="441" speed="29.95" pos="2729.33" lane="gneE2_0"/>
    </timestep>
    <timestep time="94.00">
        <vehicle id="441" speed="29.70" pos="2759.03" lane="gneE2_0"/>
    </timestep>
    <timestep time="95.00">
        <vehicle id="441" speed="29.10" pos="2788.13" lane="gneE2_0"/>
    </timestep>
    <timestep time="96.00">
        <vehicle id="441" speed="29.63" pos="2817.77" lane="gneE2_0"/>
    </timestep>
    <timestep time="97.00">
        <vehicle id="441" speed="28.87" pos="2846.64" lane="gneE2_0"/>
    </timestep>
    <timestep time="98.00">
        <vehicle id="441" speed="29.10" pos="2875.74" lane="gneE2_0"/>
    </timestep>
    <timestep time="99.00">
        <vehicle id="441" speed="29.64" pos="2905.38" lane="gneE2_0"/>
    </timestep>
    <timestep time="100.00">
        <vehicle id="441" speed="29.43" pos="2934.81" lane="gneE2_0"/>
    </timestep>
    <timestep time="101.00">
        <vehicle id="441" speed="28.86" pos="2963.67" lane="gneE2_0"/>
    </timestep>
    <timestep time="102.00">
        <vehicle id="441" speed="29.22" pos="2992.89" lane="gneE2_0"/>
    </timestep>
    <timestep time="103.00">
        <vehicle id="441" speed="29.47" pos="3022.36" lane="gneE2_0"/>
    </timestep>
    <timestep time="104.00">
        <vehicle id="441" speed="28.75" pos="3051.12" lane="gneE2_0"/>
    </timestep>
    <timestep time="105.00">
        <vehicle id="441" speed="29.98" pos="3081.10" lane="gneE2_0"/>
    </timestep>
    <timestep time="106.00">
        <vehicle id="441" speed="29.38" pos="3110.47" lane="gneE2_0"/>
    </timestep>
    <timestep time="107.00">
        <vehicle id="441" speed="29.41" pos="3139.88" lane="gneE2_0"/>
    </timestep>
    <timestep time="108.00">
        <vehicle id="441" speed="29.08" pos="3168.97" lane="gneE2_0"/>
    </timestep>
    <timestep time="109.00">
        <vehicle id="441" speed="29.80" pos="3198.77" lane="gneE2_0"/>
    </timestep>
    <timestep time="110.00">
        <vehicle id="441" speed="29.17" pos="3227.94" lane="gneE2_0"/>
    </timestep>
    <timestep time="111.00">
        <vehicle id="441" speed="29.61" pos="3257.55" lane="gneE2_0"/>
    </timestep>
    <timestep time="112.00">
        <vehicle id="441" speed="28.79" pos="3286.33" lane="gneE2_0"/>
    </timestep>
    <timestep time="113.00">
        <vehicle id="441" speed="28.76" pos="3315.09" lane="gneE2_0"/>
    </timestep>
    <timestep time="114.00">
        <vehicle id="441" speed="29.00" pos="3344.09" lane="gneE2_0"/>
    </timestep>
    <timestep time="115.00">
        <vehicle id="441" speed="29.62" pos="3373.71" lane="gneE2_0"/>
    </timestep>
    <timestep time="116.00">
        <vehicle id="441" speed="29.09" pos="3402.80" lane="gneE2_0"/>
    </timestep>
    <timestep time="117.00">
        <vehicle id="441" speed="29.17" pos="3431.98" lane="gneE2_0"/>
    </timestep>
    <timestep time="118.00">
        <vehicle id="441" speed="29.86" pos="3461.84" lane="gneE2_0"/>
    </timestep>
    <timestep time="119.00">
        <vehicle id="441" speed="29.88" pos="3491.72" lane="gneE2_0"/>
    </timestep>
    <timestep time="120.00">
        <vehicle id="441" speed="29.09" pos="20.71" lane="1to22.17_0"/>
    </timestep>
    <timestep time="121.00">
        <vehicle id="441" speed="29.89" pos="50.61" lane="1to22.17_0"/>
    </timestep>
    <timestep time="122.00">
        <vehicle id="441" speed="29.26" pos="79.87" lane="1to22.17_0"/>
    </timestep>
    <timestep time="123.00">
        <vehicle id="441" speed="29.95" pos="109.82" lane="1to22.17_0"/>
    </timestep>
    <timestep time="124.00">
        <vehicle id="441" speed="29.61" pos="139.43" lane="1to22.17_0"/>
    </timestep>
    <timestep time="125.00">
        <vehicle id="441" speed="29.84" pos="169.27" lane="1to22.17_0"/>
    </timestep>
    <timestep time="126.00">
        <vehicle id="441" speed="29.64" pos="198.91" lane="1to22.17_0"/>
    </timestep>
    <timestep time="127.00">
        <vehicle id="441" speed="29.03" pos="227.94" lane="1to22.17_0"/>
    </timestep>
    <timestep time="128.00">
        <vehicle id="441" speed="29.95" pos="257.89" lane="1to22.17_0"/>
    </timestep>
    <timestep time="129.00">
        <vehicle id="441" speed="29.65" pos="287.54" lane="1to22.17_0"/>
    </timestep>
    <timestep time="130.00">
        <vehicle id="441" speed="29.99" pos="317.53" lane="1to22.17_0"/>
    </timestep>
    <timestep time="131.00">
        <vehicle id="441" speed="28.88" pos="346.42" lane="1to22.17_0"/>
    </timestep>
    <timestep time="132.00">
        <vehicle id="441" speed="29.00" pos="375.42" lane="1to22.17_0"/>
    </timestep>
    <timestep time="133.00">
        <vehicle id="441" speed="29.13" pos="404.55" lane="1to22.17_0"/>
    </timestep>
    <timestep time="134.00">
        <vehicle id="441" speed="29.21" pos="433.77" lane="1to22.17_0"/>
    </timestep>
    <timestep time="135.00">
        <vehicle id="441" speed="29.02" pos="462.78" lane="1to22.17_0"/>
    </timestep>
    <timestep time="136.00">
        <vehicle id="441" speed="29.94" pos="492.73" lane="1to22.17_0"/>
    </timestep>
    <timestep time="137.00">
        <vehicle id="441" speed="29.66" pos="522.38" lane="1to22.17_0"/>
    </timestep>
    <timestep time="138.00">
        <vehicle id="441" speed="29.32" pos="551.70" lane="1to22.17_0"/>
    </timestep>
    <timestep time="139.00">
        <vehicle id="441" speed="29.73" pos="581.43" lane="1to22.17_0"/>
    </timestep>
    <timestep time="140.00">
        <vehicle id="441" speed="29.71" pos="611.14" lane="1to22.17_0"/>
    </timestep>
    <timestep time="141.00">
        <vehicle id="441" speed="29.17" pos="640.31" lane="1to22.17_0"/>
    </timestep>
    <timestep time="142.00">
        <vehicle id="441" speed="29.49" pos="669.80" lane="1to22.17_0"/>
    </timestep>
    <timestep time="143.00">
        <vehicle id="441" speed="29.34" pos="699.14" lane="1to22.17_0"/>
    </timestep>
    <timestep time="144.00">
        <vehicle id="441" speed="29.98" pos="729.12" lane="1to22.17_0"/>
    </timestep>
    <timestep time="145.00">
        <vehicle id="441" speed="29.08" pos="758.20" lane="1to22.17_0"/>
    </timestep>
    <timestep time="146.00">
        <vehicle id="441" speed="29.94" pos="788.14" lane="1to22.17_0"/>
    </timestep>
    <timestep time="147.00">
        <vehicle id="441" speed="28.83" pos="816.97" lane="1to22.17_0"/>
    </timestep>
    <timestep time="148.00">
        <vehicle id="441" speed="28.94" pos="845.91" lane="1to22.17_0"/>
    </timestep>
    <timestep time="149.00">
        <vehicle id="441" speed="29.76" pos="875.67" lane="1to22.17_0"/>
    </timestep>
    <timestep time="150.00">
        <vehicle id="441" speed="29.45" pos="905.12" lane="1to22.17_0"/>
    </timestep>
    <timestep time="151.00">
        <vehicle id="441" speed="29.73" pos="934.85" lane="1to22.17_0"/>
    </timestep>
    <timestep time="152.00">
        <vehicle id="441" speed="29.32" pos="964.17" lane="1to22.17_0"/>
    </timestep>
    <timestep time="153.00">
        <vehicle id="441" speed="29.04" pos="993.21" lane="1to22.17_0"/>
    </timestep>
    <timestep time="154.00">
        <vehicle id="441" speed="29.23" pos="1022.44" lane="1to22.17_0"/>
    </timestep>
    <timestep time="155.00">
        <vehicle id="441" speed="29.56" pos="1052.00" lane="1to22.17_0"/>
    </timestep>
    <timestep time="156.00">
        <vehicle id="441" speed="29.59" pos="1081.59" lane="1to22.17_0"/>
    </timestep>
    <timestep time="157.00">
        <vehicle id="441" speed="29.89" pos="1111.48" lane="1to22.17_0"/>
    </timestep>
    <timestep time="158.00">
        <vehicle id="441" speed="29.80" pos="1141.28" lane="1to22.17_0"/>
    </timestep>
    <timestep time="159.00">
        <vehicle id="441" speed="29.10" pos="1170.38" lane="1to22.17_0"/>
    </timestep>
    <timestep time="160.00">
        <vehicle id="441" speed="29.58" pos="1199.96" lane="1to22.17_0"/>
    </timestep>
    <timestep time="161.00">
        <vehicle id="441" speed="29.56" pos="1229.52" lane="1to22.17_0"/>
    </timestep>
    <timestep time="162.00">
        <vehicle id="441" speed="29.49" pos="1259.01" lane="1to22.17_0"/>
    </timestep>
    <timestep time="163.00">
        <vehicle id="441" speed="29.22" pos="1288.23" lane="1to22.17_0"/>
    </timestep>
    <timestep time="164.00">
        <vehicle id="441" speed="29.04" pos="1317.27" lane="1to22.17_0"/>
    </timestep>
    <timestep time="165.00">
        <vehicle id="441" speed="29.22" pos="1346.49" lane="1to22.17_0"/>
    </timestep>
    <timestep time="166.00">
        <vehicle id="441" speed="29.40" pos="1375.89" lane="1to22.17_0"/>
    </timestep>
    <timestep time="167.00">
        <vehicle id="441" speed="28.87" pos="1404.76" lane="1to22.17_0"/>
    </timestep>
    <timestep time="168.00">
        <vehicle id="441" speed="29.41" pos="1434.17" lane="1to22.17_0"/>
    </timestep>
    <timestep time="169.00">
        <vehicle id="441" speed="29.83" pos="1464.00" lane="1to22.17_0"/>
    </timestep>
    <timestep time="170.00">
        <vehicle id="441" speed="29.17" pos="1493.17" lane="1to22.17_0"/>
    </timestep>
    <timestep time="171.00">
        <vehicle id="441" speed="28.86" pos="1522.03" lane="1to22.17_0"/>
    </timestep>
    <timestep time="172.00">
        <vehicle id="441" speed="29.24" pos="1551.26" lane="1to22.17_0"/>
    </timestep>
    <timestep time="173.00">
        <vehicle id="441" speed="28.75" pos="1580.01" lane="1to22.17_0"/>
    </timestep>
    <timestep time="174.00">
        <vehicle id="441" speed="29.31" pos="1609.32" lane="1to22.17_0"/>
    </timestep>
    <timestep time="175.00">
        <vehicle id="441" speed="29.79" pos="1639.11" lane="1to22.17_0"/>
    </timestep>
    <timestep time="176.00">
        <vehicle id="441" speed="29.13" pos="1668.24" lane="1to22.17_0"/>
    </timestep>
    <timestep time="177.00">
        <vehicle id="441" speed="29.50" pos="1697.74" lane="1to22.17_0"/>
    </timestep>
    <timestep time="178.00">
        <vehicle id="441" speed="29.91" pos="1727.65" lane="1to22.17_0"/>
    </timestep>
    <timestep time="179.00">
        <vehicle id="441" speed="29.94" pos="1757.58" lane="1to22.17_0"/>
    </timestep>
    <timestep time="180.00">
        <vehicle id="441" speed="29.78" pos="1787.37" lane="1to22.17_0"/>
    </timestep>
    <timestep time="181.00">
        <vehicle id="441" speed="28.94" pos="1816.31" lane="1to22.17_0"/>
    </timestep>
    <timestep time="182.00">
        <vehicle id="441" speed="28.82" pos="1845.13" lane="1to22.17_0"/>
    </timestep>
    <timestep time="183.00">
        <vehicle id="441" speed="28.70" pos="1873.83" lane="1to22.17_0"/>
    </timestep>
    <timestep time="184.00">
        <vehicle id="441" speed="29.23" pos="1903.06" lane="1to22.17_0"/>
    </timestep>
    <timestep time="185.00">
        <vehicle id="441" speed="29.30" pos="1932.36" lane="1to22.17_0"/>
    </timestep>
    <timestep time="186.00">
        <vehicle id="441" speed="28.78" pos="1961.14" lane="1to22.17_0"/>
    </timestep>
    <timestep time="187.00">
        <vehicle id="441" speed="28.78" pos="1989.92" lane="1to22.17_0"/>
    </timestep>
    <timestep time="188.00">
        <vehicle id="441" speed="28.77" pos="2018.70" lane="1to22.17_0"/>
    </timestep>
    <timestep time="189.00">
        <vehicle id="441" speed="29.74" pos="2048.44" lane="1to22.17_0"/>
    </timestep>
    <timestep time="190.00">
        <vehicle id="441" speed="29.15" pos="2077.59" lane="1to22.17_0"/>
    </timestep>
    <timestep time="191.00">
        <vehicle id="441" speed="28.73" pos="2106.31" lane="1to22.17_0"/>
    </timestep>
    <timestep time="192.00">
        <vehicle id="441" speed="28.77" pos="2135.08" lane="1to22.17_0"/>
    </timestep>
    <timestep time="193.00">
        <vehicle id="441" speed="29.09" pos="2164.17" lane="1to22.17_0"/>
    </timestep>
    <timestep time="194.00">
        <vehicle id="441" speed="29.35" pos="2193.52" lane="1to22.17_0"/>
    </timestep>
    <timestep time="195.00">
        <vehicle id="441" speed="29.85" pos="2223.38" lane="1to22.17_0"/>
    </timestep>
    <timestep time="196.00">
        <vehicle id="441" speed="29.84" pos="2253.21" lane="1to22.17_0"/>
    </timestep>
    <timestep time="197.00">
        <vehicle id="441" speed="29.28" pos="2282.49" lane="1to22.17_0"/>
    </timestep>
    <timestep time="198.00">
        <vehicle id="441" speed="28.73" pos="2311.22" lane="1to22.17_0"/>
    </timestep>
    <timestep time="199.00">
        <vehicle id="441" speed="29.65" pos="2340.87" lane="1to22.17_0"/>
    </timestep>
    <timestep time="200.00">
        <vehicle id="441" speed="29.44" pos="2370.31" lane="1to22.17_0"/>
    </timestep>
    <timestep time="201.00">
        <vehicle id="441" speed="29.20" pos="2399.51" lane="1to22.17_0"/>
    </timestep>
    <timestep time="202.00">
        <vehicle id="441" speed="28.92" pos="2428.43" lane="1to22.17_0"/>
    </timestep>
    <timestep time="203.00">
        <vehicle id="441" speed="29.48" pos="2457.91" lane="1to22.17_0"/>
    </timestep>
    <timestep time="204.00">
        <vehicle id="441" speed="28.71" pos="2486.62" lane="1to22.17_0"/>
    </timestep>
    <timestep time="205.00">
        <vehicle id="441" speed="29.57" pos="2516.18" lane="1to22.17_0"/>
    </timestep>
    <timestep time="206.00">
        <vehicle id="441" speed="29.39" pos="2545.58" lane="1to22.17_0"/>
    </timestep>
    <timestep time="207.00">
        <vehicle id="441" speed="29.78" pos="2575.36" lane="1to22.17_0"/>
    </timestep>
    <timestep time="208.00">
        <vehicle id="441" speed="29.74" pos="2605.09" lane="1to22.17_0"/>
    </timestep>
    <timestep time="209.00">
        <vehicle id="441" speed="28.86" pos="2633.95" lane="1to22.17_0"/>
    </timestep>
    <timestep time="210.00">
        <vehicle id="441" speed="29.64" pos="2663.59" lane="1to22.17_0"/>
    </timestep>
    <timestep time="211.00">
        <vehicle id="441" speed="29.77" pos="2693.36" lane="1to22.17_0"/>
    </timestep>
    <timestep time="212.00">
        <vehicle id="441" speed="29.31" pos="2722.66" lane="1to22.17_0"/>
    </timestep>
    <timestep time="213.00">
        <vehicle id="441" speed="29.20" pos="2751.86" lane="1to22.17_0"/>
    </timestep>
    <timestep time="214.00">
        <vehicle id="441" speed="28.97" pos="2780.83" lane="1to22.17_0"/>
    </timestep>
    <timestep time="215.00">
        <vehicle id="441" speed="29.56" pos="2810.39" lane="1to22.17_0"/>
    </timestep>
    <timestep time="216.00">
        <vehicle id="441" speed="29.15" pos="2839.54" lane="1to22.17_0"/>
    </timestep>
    <timestep time="217.00">
        <vehicle id="441" speed="29.36" pos="2868.91" lane="1to22.17_0"/>
    </timestep>
    <timestep time="218.00">
        <vehicle id="441" speed="28.75" pos="2897.66" lane="1to22.17_0"/>
    </timestep>
    <timestep time="219.00">
        <vehicle id="441" speed="29.60" pos="2927.26" lane="1to22.17_0"/>
    </timestep>
    <timestep time="220.00">
        <vehicle id="441" speed="29.42" pos="2956.68" lane="1to22.17_0"/>
    </timestep>
    <timestep time="221.00">
        <vehicle id="441" speed="29.13" pos="2985.81" lane="1to22.17_0"/>
    </timestep>
    <timestep time="222.00">
        <vehicle id="441" speed="29.35" pos="3015.16" lane="1to22.17_0"/>
    </timestep>
    <timestep time="223.00">
        <vehicle id="441" speed="29.69" pos="3044.85" lane="1to22.17_0"/>
    </timestep>
    <timestep time="224.00">
        <vehicle id="441" speed="28.94" pos="3073.79" lane="1to22.17_0"/>
    </timestep>
    <timestep time="225.00">
        <vehicle id="441" speed="29.28" pos="3103.07" lane="1to22.17_0"/>
    </timestep>
    <timestep time="226.00">
        <vehicle id="441" speed="29.45" pos="3132.52" lane="1to22.17_0"/>
    </timestep>
    <timestep time="227.00">
        <vehicle id="441" speed="29.91" pos="3162.43" lane="1to22.17_0"/>
    </timestep>
    <timestep time="228.00">
        <vehicle id="441" speed="29.81" pos="3192.24" lane="1to22.17_0"/>
    </timestep>
    <timestep time="229.00">
        <vehicle id="441" speed="29.00" pos="3221.24" lane="1to22.17_0"/>
    </timestep>
    <timestep time="230.00">
        <vehicle id="441" speed="29.10" pos="3250.34" lane="1to22.17_0"/>
    </timestep>
    <timestep time="231.00">
        <vehicle id="441" speed="29.79" pos="3280.14" lane="1to22.17_0"/>
    </timestep>
    <timestep time="232.00">
        <vehicle id="441" speed="29.14" pos="3309.28" lane="1to22.17_0"/>
    </timestep>
    <timestep time="233.00">
        <vehicle id="441" speed="29.06" pos="3338.34" lane="1to22.17_0"/>
    </timestep>
    <timestep time="234.00">
        <vehicle id="441" speed="29.00" pos="3367.34" lane="1to22.17_0"/>
    </timestep>
    <timestep time="235.00">
        <vehicle id="441" speed="29.78" pos="3397.12" lane="1to22.17_0"/>
    </timestep>
    <timestep time="236.00">
        <vehicle id="441" speed="28.99" pos="3426.11" lane="1to22.17_0"/>
    </timestep>
    <timestep time="237.00">
        <vehicle id="441" speed="29.21" pos="3455.32" lane="1to22.17_0"/>
    </timestep>
    <timestep time="238.00">
        <vehicle id="441" speed="29.78" pos="3485.10" lane="1to22.17_0"/>
    </timestep>
    <timestep time="239.00">
        <vehicle id="441" speed="29.00" pos="3514.10" lane="1to22.17_0"/>
    </timestep>
    <timestep time="240.00">
        <vehicle id="441" speed="29.16" pos="3543.26" lane="1to22.17_0"/>
    </timestep>
    <timestep time="241.00">
        <vehicle id="441" speed="29.53" pos="3572.79" lane="1to22.17_0"/>
    </timestep>
    <timestep time="242.00">
        <vehicle id="441" speed="29.67" pos="3602.46" lane="1to22.17_0"/>
    </timestep>