<?xml version="1.0" encoding="UTF-8"?>

<!-- generated on 05/02/13 15:09:58 by SUMO sumo Version 0.17.0
<?xml version="1.0" encoding="UTF-8"?>

<configuration xmlns:xsi="http://www.w3.org/2001/XMLSchema-instance" xsi:noNamespaceSchemaLocation="http://sumo.dlr.de/xsd/sumoConfiguration.xsd">

    <input>
        <net-file value="net.net.xml"/>
        <additional-files value="input_routes.rou.xml"/>
    </input>

    <output>
        <netstate-dump value="rawdump.xml"/>
    </output>

    <time>
        <begin value="0"/>
        <end value="1000"/>
    </time>

    <report>
        <no-duration-log value="true"/>
        <no-step-log value="true"/>
    </report>

    <mesoscopic>
        <mesosim value="true"/>
    </mesoscopic>

</configuration>
-->

<netstate xmlns:xsi="http://www.w3.org/2001/XMLSchema-instance" xsi:noNamespaceSchemaLocation="http://sumo.dlr.de/xsd/netstate_file.xsd">
    <timestep time="0.00">
        <edge id="gneE2">
            <vehicle id="441" pos="0.00" speed="30.01"/>
        </edge>
    </timestep>
    <timestep time="1.00">
        <edge id="gneE2">
            <vehicle id="441" pos="0.00" speed="30.01"/>
        </edge>
    </timestep>
    <timestep time="2.00">
        <edge id="gneE2">
            <vehicle id="441" pos="0.00" speed="30.01"/>
        </edge>
    </timestep>
    <timestep time="3.00">
        <edge id="gneE2">
            <vehicle id="441" pos="0.00" speed="30.01"/>
        </edge>
    </timestep>
    <timestep time="4.00">
        <edge id="gneE2">
            <vehicle id="441" pos="97.22" speed="30.01"/>
        </edge>
    </timestep>
    <timestep time="5.00">
        <edge id="gneE2">
            <vehicle id="441" pos="97.22" speed="30.01"/>
        </edge>
    </timestep>
    <timestep time="6.00">
        <edge id="gneE2">
            <vehicle id="441" pos="97.22" speed="30.01"/>
        </edge>
    </timestep>
    <timestep time="7.00">
        <edge id="gneE2">
            <vehicle id="441" pos="194.44" speed="30.01"/>
        </edge>
    </timestep>
    <timestep time="8.00">
        <edge id="gneE2">
            <vehicle id="441" pos="194.44" speed="30.01"/>
        </edge>
    </timestep>
    <timestep time="9.00">
        <edge id="gneE2">
            <vehicle id="441" pos="194.44" speed="30.01"/>
        </edge>
    </timestep>
    <timestep time="10.00">
        <edge id="gneE2">
            <vehicle id="441" pos="291.67" speed="30.01"/>
        </edge>
    </timestep>
    <timestep time="11.00">
        <edge id="gneE2">
            <vehicle id="441" pos="291.67" speed="30.01"/>
        </edge>
    </timestep>
    <timestep time="12.00">
        <edge id="gneE2">
            <vehicle id="441" pos="291.67" speed="30.01"/>
        </edge>
    </timestep>
    <timestep time="13.00">
        <edge id="gneE2">
            <vehicle id="441" pos="388.89" speed="30.01"/>
        </edge>
    </timestep>
    <timestep time="14.00">
        <edge id="gneE2">
            <vehicle id="441" pos="388.89" speed="30.01"/>
        </edge>
    </timestep>
    <timestep time="15.00">
        <edge id="gneE2">
            <vehicle id="441" pos="388.89" speed="30.01"/>
        </edge>
    </timestep>
    <timestep time="16.00">
        <edge id="gneE2">
            <vehicle id="441" pos="388.89" speed="30.01"/>
        </edge>
    </timestep>
    <timestep time="17.00">
        <edge id="gneE2">
            <vehicle id="441" pos="486.11" speed="30.01"/>
        </edge>
    </timestep>
    <timestep time="18.00">
        <edge id="gneE2">
            <vehicle id="441" pos="486.11" speed="30.01"/>
        </edge>
    </timestep>
    <timestep time="19.00">
        <edge id="gneE2">
            <vehicle id="441" pos="486.11" speed="30.01"/>
        </edge>
    </timestep>
    <timestep time="20.00">
        <edge id="gneE2">
            <vehicle id="441" pos="583.33" speed="30.01"/>
        </edge>
    </timestep>
    <timestep time="21.00">
        <edge id="gneE2">
            <vehicle id="441" pos="583.33" speed="30.01"/>
        </edge>
    </timestep>
    <timestep time="22.00">
        <edge id="gneE2">
            <vehicle id="441" pos="583.33" speed="30.01"/>
        </edge>
    </timestep>
    <timestep time="23.00">
        <edge id="gneE2">
            <vehicle id="441" pos="680.56" speed="30.01"/>
        </edge>
    </timestep>
    <timestep time="24.00">
        <edge id="gneE2">
            <vehicle id="441" pos="680.56" speed="30.01"/>
        </edge>
    </timestep>
    <timestep time="25.00">
        <edge id="gneE2">
            <vehicle id="441" pos="680.56" speed="30.01"/>
        </edge>
    </timestep>
    <timestep time="26.00">
        <edge id="gneE2">
            <vehicle id="441" pos="777.78" speed="30.01"/>
        </edge>
    </timestep>
    <timestep time="27.00">
        <edge id="gneE2">
            <vehicle id="441" pos="777.78" speed="30.01"/>
        </edge>
    </timestep>
    <timestep time="28.00">
        <edge id="gneE2">
            <vehicle id="441" pos="777.78" speed="30.01"/>
        </edge>
    </timestep>
    <timestep time="29.00">
        <edge id="gneE2">
            <vehicle id="441" pos="777.78" speed="30.01"/>
        </edge>
    </timestep>
    <timestep time="30.00">
        <edge id="gneE2">
            <vehicle id="441" pos="875.00" speed="30.01"/>
        </edge>
    </timestep>
    <timestep time="31.00">
        <edge id="gneE2">
            <vehicle id="441" pos="875.00" speed="30.01"/>
        </edge>
    </timestep>
    <timestep time="32.00">
        <edge id="gneE2">
            <vehicle id="441" pos="875.00" speed="30.01"/>
        </edge>
    </timestep>
    <timestep time="33.00">
        <edge id="gneE2">
            <vehicle id="441" pos="972.22" speed="30.01"/>
        </edge>
    </timestep>
    <timestep time="34.00">
        <edge id="gneE2">
            <vehicle id="441" pos="972.22" speed="30.01"/>
        </edge>
    </timestep>
    <timestep time="35.00">
        <edge id="gneE2">
            <vehicle id="441" pos="972.22" speed="30.01"/>
        </edge>
    </timestep>
    <timestep time="36.00">
        <edge id="gneE2">
            <vehicle id="441" pos="1069.44" speed="30.01"/>
        </edge>
    </timestep>
    <timestep time="37.00">
        <edge id="gneE2">
            <vehicle id="441" pos="1069.44" speed="30.01"/>
        </edge>
    </timestep>
    <timestep time="38.00">
        <edge id="gneE2">
            <vehicle id="441" pos="1069.44" speed="30.01"/>
        </edge>
    </timestep>
    <timestep time="39.00">
        <edge id="gneE2">
            <vehicle id="441" pos="1166.67" speed="30.01"/>
        </edge>
    </timestep>
    <timestep time="40.00">
        <edge id="gneE2">
            <vehicle id="441" pos="1166.67" speed="30.01"/>
        </edge>
    </timestep>
    <timestep time="41.00">
        <edge id="gneE2">
            <vehicle id="441" pos="1166.67" speed="30.01"/>
        </edge>
    </timestep>
    <timestep time="42.00">
        <edge id="gneE2">
            <vehicle id="441" pos="1166.67" speed="30.01"/>
        </edge>
    </timestep>
    <timestep time="43.00">
        <edge id="gneE2">
            <vehicle id="441" pos="1263.89" speed="30.01"/>
        </edge>
    </timestep>
    <timestep time="44.00">
        <edge id="gneE2">
            <vehicle id="441" pos="1263.89" speed="30.01"/>
        </edge>
    </timestep>
    <timestep time="45.00">
        <edge id="gneE2">
            <vehicle id="441" pos="1263.89" speed="30.01"/>
        </edge>
    </timestep>
    <timestep time="46.00">
        <edge id="gneE2">
            <vehicle id="441" pos="1361.11" speed="30.01"/>
        </edge>
    </timestep>
    <timestep time="47.00">
        <edge id="gneE2">
            <vehicle id="441" pos="1361.11" speed="30.01"/>
        </edge>
    </timestep>
    <timestep time="48.00">
        <edge id="gneE2">
            <vehicle id="441" pos="1361.11" speed="30.01"/>
        </edge>
    </timestep>
    <timestep time="49.00">
        <edge id="gneE2">
            <vehicle id="441" pos="1458.33" speed="30.01"/>
        </edge>
    </timestep>
    <timestep time="50.00">
        <edge id="gneE2">
            <vehicle id="441" pos="1458.33" speed="30.01"/>
        </edge>
    </timestep>
    <timestep time="51.00">
        <edge id="gneE2">
            <vehicle id="441" pos="1458.33" speed="30.01"/>
        </edge>
    </timestep>
    <timestep time="52.00">
        <edge id="gneE2">
            <vehicle id="441" pos="1555.56" speed="30.01"/>
        </edge>
    </timestep>
    <timestep time="53.00">
        <edge id="gneE2">
            <vehicle id="441" pos="1555.56" speed="30.01"/>
        </edge>
    </timestep>
    <timestep time="54.00">
        <edge id="gneE2">
            <vehicle id="441" pos="1555.56" speed="30.01"/>
        </edge>
    </timestep>
    <timestep time="55.00">
        <edge id="gneE2">
            <vehicle id="441" pos="1555.56" speed="30.01"/>
        </edge>
    </timestep>
    <timestep time="56.00">
        <edge id="gneE2">
            <vehicle id="441" pos="1652.78" speed="30.01"/>
        </edge>
    </timestep>
    <timestep time="57.00">
        <edge id="gneE2">
            <vehicle id="441" pos="1652.78" speed="30.01"/>
        </edge>
    </timestep>
    <timestep time="58.00">
        <edge id="gneE2">
            <vehicle id="441" pos="1652.78" speed="30.01"/>
        </edge>
    </timestep>
    <timestep time="59.00">
        <edge id="gneE2">
            <vehicle id="441" pos="1750.00" speed="30.01"/>
        </edge>
    </timestep>
    <timestep time="60.00">
        <edge id="gneE2">
            <vehicle id="441" pos="1750.00" speed="30.01"/>
        </edge>
    </timestep>
    <timestep time="61.00">
        <edge id="gneE2">
            <vehicle id="441" pos="1750.00" speed="30.01"/>
        </edge>
    </timestep>
    <timestep time="62.00">
        <edge id="gneE2">
            <vehicle id="441" pos="1847.22" speed="30.01"/>
        </edge>
    </timestep>
    <timestep time="63.00">
        <edge id="gneE2">
            <vehicle id="441" pos="1847.22" speed="30.01"/>
        </edge>
    </timestep>
    <timestep time="64.00">
        <edge id="gneE2">
            <vehicle id="441" pos="1847.22" speed="30.01"/>
        </edge>
    </timestep>
    <timestep time="65.00">
        <edge id="gneE2">
            <vehicle id="441" pos="1944.44" speed="30.01"/>
        </edge>
    </timestep>
    <timestep time="66.00">
        <edge id="gneE2">
            <vehicle id="441" pos="1944.44" speed="30.01"/>
        </edge>
    </timestep>
    <timestep time="67.00">
        <edge id="gneE2">
            <vehicle id="441" pos="1944.44" speed="30.01"/>
        </edge>
    </timestep>
    <timestep time="68.00">
        <edge id="gneE2">
            <vehicle id="441" pos="1944.44" speed="30.01"/>
        </edge>
    </timestep>
    <timestep time="69.00">
        <edge id="gneE2">
            <vehicle id="441" pos="2041.67" speed="30.01"/>
        </edge>
    </timestep>
    <timestep time="70.00">
        <edge id="gneE2">
            <vehicle id="441" pos="2041.67" speed="30.01"/>
        </edge>
    </timestep>
    <timestep time="71.00">
        <edge id="gneE2">
            <vehicle id="441" pos="2041.67" speed="30.01"/>
        </edge>
    </timestep>
    <timestep time="72.00">
        <edge id="gneE2">
            <vehicle id="441" pos="2138.89" speed="30.01"/>
        </edge>
    </timestep>
    <timestep time="73.00">
        <edge id="gneE2">
            <vehicle id="441" pos="2138.89" speed="30.01"/>
        </edge>
    </timestep>
    <timestep time="74.00">
        <edge id="gneE2">
            <vehicle id="441" pos="2138.89" speed="30.01"/>
        </edge>
    </timestep>
    <timestep time="75.00">
        <edge id="gneE2">
            <vehicle id="441" pos="2236.11" speed="30.01"/>
        </edge>
    </timestep>
    <timestep time="76.00">
        <edge id="gneE2">
            <vehicle id="441" pos="2236.11" speed="30.01"/>
        </edge>
    </timestep>
    <timestep time="77.00">
        <edge id="gneE2">
            <vehicle id="441" pos="2236.11" speed="30.01"/>
        </edge>
    </timestep>
    <timestep time="78.00">
        <edge id="gneE2">
            <vehicle id="441" pos="2333.33" speed="30.01"/>
        </edge>
    </timestep>
    <timestep time="79.00">
        <edge id="gneE2">
            <vehicle id="441" pos="2333.33" speed="30.01"/>
        </edge>
    </timestep>
    <timestep time="80.00">
        <edge id="gneE2">
            <vehicle id="441" pos="2333.33" speed="30.01"/>
        </edge>
    </timestep>
    <timestep time="81.00">
        <edge id="gneE2">
            <vehicle id="441" pos="2430.56" speed="30.01"/>
        </edge>
    </timestep>
    <timestep time="82.00">
        <edge id="gneE2">
            <vehicle id="441" pos="2430.56" speed="30.01"/>
        </edge>
    </timestep>
    <timestep time="83.00">
        <edge id="gneE2">
            <vehicle id="441" pos="2430.56" speed="30.01"/>
        </edge>
    </timestep>
    <timestep time="84.00">
        <edge id="gneE2">
            <vehicle id="441" pos="2430.56" speed="30.01"/>
        </edge>
    </timestep>
    <timestep time="85.00">
        <edge id="gneE2">
            <vehicle id="441" pos="2527.78" speed="30.01"/>
        </edge>
    </timestep>
    <timestep time="86.00">
        <edge id="gneE2">
            <vehicle id="441" pos="2527.78" speed="30.01"/>
        </edge>
    </timestep>
    <timestep time="87.00">
        <edge id="gneE2">
            <vehicle id="441" pos="2527.78" speed="30.01"/>
        </edge>
    </timestep>
    <timestep time="88.00">
        <edge id="gneE2">
            <vehicle id="441" pos="2625.00" speed="30.01"/>
        </edge>
    </timestep>
    <timestep time="89.00">
        <edge id="gneE2">
            <vehicle id="441" pos="2625.00" speed="30.01"/>
        </edge>
    </timestep>
    <timestep time="90.00">
        <edge id="gneE2">
            <vehicle id="441" pos="2625.00" speed="30.01"/>
        </edge>
    </timestep>
    <timestep time="91.00">
        <edge id="gneE2">
            <vehicle id="441" pos="2722.22" speed="30.01"/>
        </edge>
    </timestep>
    <timestep time="92.00">
        <edge id="gneE2">
            <vehicle id="441" pos="2722.22" speed="30.01"/>
        </edge>
    </timestep>
    <timestep time="93.00">
        <edge id="gneE2">
            <vehicle id="441" pos="2722.22" speed="30.01"/>
        </edge>
    </timestep>
    <timestep time="94.00">
        <edge id="gneE2">
            <vehicle id="441" pos="2819.44" speed="30.01"/>
        </edge>
    </timestep>
    <timestep time="95.00">
        <edge id="gneE2">
            <vehicle id="441" pos="2819.44" speed="30.01"/>
        </edge>
    </timestep>
    <timestep time="96.00">
        <edge id="gneE2">
            <vehicle id="441" pos="2819.44" speed="30.01"/>
        </edge>
    </timestep>
    <timestep time="97.00">
        <edge id="gneE2">
            <vehicle id="441" pos="2819.44" speed="30.01"/>
        </edge>
    </timestep>
    <timestep time="98.00">
        <edge id="gneE2">
            <vehicle id="441" pos="2916.67" speed="30.01"/>
        </edge>
    </timestep>
    <timestep time="99.00">
        <edge id="gneE2">
            <vehicle id="441" pos="2916.67" speed="30.01"/>
        </edge>
    </timestep>
    <timestep time="100.00">
        <edge id="gneE2">
            <vehicle id="441" pos="2916.67" speed="30.01"/>
        </edge>
    </timestep>
    <timestep time="101.00">
        <edge id="gneE2">
            <vehicle id="441" pos="3013.89" speed="30.01"/>
        </edge>
    </timestep>
    <timestep time="102.00">
        <edge id="gneE2">
            <vehicle id="441" pos="3013.89" speed="30.01"/>
        </edge>
    </timestep>
    <timestep time="103.00">
        <edge id="gneE2">
            <vehicle id="441" pos="3013.89" speed="30.01"/>
        </edge>
    </timestep>
    <timestep time="104.00">
        <edge id="gneE2">
            <vehicle id="441" pos="3111.11" speed="30.01"/>
        </edge>
    </timestep>
    <timestep time="105.00">
        <edge id="gneE2">
            <vehicle id="441" pos="3111.11" speed="30.01"/>
        </edge>
    </timestep>
    <timestep time="106.00">
        <edge id="gneE2">
            <vehicle id="441" pos="3111.11" speed="30.01"/>
        </edge>
    </timestep>
    <timestep time="107.00">
        <edge id="gneE2">
            <vehicle id="441" pos="3208.33" speed="30.01"/>
        </edge>
    </timestep>
    <timestep time="108.00">
        <edge id="gneE2">
            <vehicle id="441" pos="3208.33" speed="30.01"/>
        </edge>
    </timestep>
    <timestep time="109.00">
        <edge id="gneE2">
            <vehicle id="441" pos="3208.33" speed="30.01"/>
        </edge>
    </timestep>
    <timestep time="110.00">
        <edge id="gneE2">
            <vehicle id="441" pos="3208.33" speed="30.01"/>
        </edge>
    </timestep>
    <timestep time="111.00">
        <edge id="gneE2">
            <vehicle id="441" pos="3305.56" speed="30.01"/>
        </edge>
    </timestep>
    <timestep time="112.00">
        <edge id="gneE2">
            <vehicle id="441" pos="3305.56" speed="30.01"/>
        </edge>
    </timestep>
    <timestep time="113.00">
        <edge id="gneE2">
            <vehicle id="441" pos="3305.56" speed="30.01"/>
        </edge>
    </timestep>
    <timestep time="114.00">
        <edge id="gneE2">
            <vehicle id="441" pos="3402.78" speed="30.01"/>
        </edge>
    </timestep>
    <timestep time="115.00">
        <edge id="gneE2">
            <vehicle id="441" pos="3402.78" speed="30.01"/>
        </edge>
    </timestep>
    <timestep time="116.00">
        <edge id="gneE2">
            <vehicle id="441" pos="3402.78" speed="30.01"/>
        </edge>
    </timestep>
    <timestep time="117.00">
        <edge id="1to22.17">
            <vehicle id="441" pos="0.00" speed="30.01"/>
        </edge>
    </timestep>
    <timestep time="118.00">
        <edge id="1to22.17">
            <vehicle id="441" pos="0.00" speed="30.01"/>
        </edge>
    </timestep>
    <timestep time="119.00">
        <edge id="1to22.17">
            <vehicle id="441" pos="0.00" speed="30.01"/>
        </edge>
    </timestep>
    <timestep time="120.00">
        <edge id="1to22.17">
            <vehicle id="441" pos="98.04" speed="30.01"/>
        </edge>
    </timestep>
    <timestep time="121.00">
        <edge id="1to22.17">
            <vehicle id="441" pos="98.04" speed="30.01"/>
        </edge>
    </timestep>
    <timestep time="122.00">
        <edge id="1to22.17">
            <vehicle id="441" pos="98.04" speed="30.01"/>
        </edge>
    </timestep>
    <timestep time="123.00">
        <edge id="1to22.17">
            <vehicle id="441" pos="98.04" speed="30.01"/>
        </edge>
    </timestep>
    <timestep time="124.00">
        <edge id="1to22.17">
            <vehicle id="441" pos="196.08" speed="30.01"/>
        </edge>
    </timestep>
    <timestep time="125.00">
        <edge id="1to22.17">
            <vehicle id="441" pos="196.08" speed="30.01"/>
        </edge>
    </timestep>
    <timestep time="126.00">
        <edge id="1to22.17">
            <vehicle id="441" pos="196.08" speed="30.01"/>
        </edge>
    </timestep>
    <timestep time="127.00">
        <edge id="1to22.17">
            <vehicle id="441" pos="294.12" speed="30.01"/>
        </edge>
    </timestep>
    <timestep time="128.00">
        <edge id="1to22.17">
            <vehicle id="441" pos="294.12" speed="30.01"/>
        </edge>
    </timestep>
    <timestep time="129.00">
        <edge id="1to22.17">
            <vehicle id="441" pos="294.12" speed="30.01"/>
        </edge>
    </timestep>
    <timestep time="130.00">
        <edge id="1to22.17">
            <vehicle id="441" pos="392.16" speed="30.01"/>
        </edge>
    </timestep>
    <timestep time="131.00">
        <edge id="1to22.17">
            <vehicle id="441" pos="392.16" speed="30.01"/>
        </edge>
    </timestep>
    <timestep time="132.00">
        <edge id="1to22.17">
            <vehicle id="441" pos="392.16" speed="30.01"/>
        </edge>
    </timestep>
    <timestep time="133.00">
        <edge id="1to22.17">
            <vehicle id="441" pos="490.20" speed="30.01"/>
        </edge>
    </timestep>
    <timestep time="134.00">
        <edge id="1to22.17">
            <vehicle id="441" pos="490.20" speed="30.01"/>
        </edge>
    </timestep>
    <timestep time="135.00">
        <edge id="1to22.17">
            <vehicle id="441" pos="490.20" speed="30.01"/>
        </edge>
    </timestep>
    <timestep time="136.00">
        <edge id="1to22.17">
            <vehicle id="441" pos="490.20" speed="30.01"/>
        </edge>
    </timestep>
    <timestep time="137.00">
        <edge id="1to22.17">
            <vehicle id="441" pos="588.24" speed="30.01"/>
        </edge>
    </timestep>
    <timestep time="138.00">
        <edge id="1to22.17">
            <vehicle id="441" pos="588.24" speed="30.01"/>
        </edge>
    </timestep>
    <timestep time="139.00">
        <edge id="1to22.17">
            <vehicle id="441" pos="588.24" speed="30.01"/>
        </edge>
    </timestep>
    <timestep time="140.00">
        <edge id="1to22.17">
            <vehicle id="441" pos="686.27" speed="30.01"/>
        </edge>
    </timestep>
    <timestep time="141.00">
        <edge id="1to22.17">
            <vehicle id="441" pos="686.27" speed="30.01"/>
        </edge>
    </timestep>
    <timestep time="142.00">
        <edge id="1to22.17">
            <vehicle id="441" pos="686.27" speed="30.01"/>
        </edge>
    </timestep>
    <timestep time="143.00">
        <edge id="1to22.17">
            <vehicle id="441" pos="784.31" speed="30.01"/>
        </edge>
    </timestep>
    <timestep time="144.00">
        <edge id="1to22.17">
            <vehicle id="441" pos="784.31" speed="30.01"/>
        </edge>
    </timestep>
    <timestep time="145.00">
        <edge id="1to22.17">
            <vehicle id="441" pos="784.31" speed="30.01"/>
        </edge>
    </timestep>
    <timestep time="146.00">
        <edge id="1to22.17">
            <vehicle id="441" pos="784.31" speed="30.01"/>
        </edge>
    </timestep>
    <timestep time="147.00">
        <edge id="1to22.17">
            <vehicle id="441" pos="882.35" speed="30.01"/>
        </edge>
    </timestep>
    <timestep time="148.00">
        <edge id="1to22.17">
            <vehicle id="441" pos="882.35" speed="30.01"/>
        </edge>
    </timestep>
    <timestep time="149.00">
        <edge id="1to22.17">
            <vehicle id="441" pos="882.35" speed="30.01"/>
        </edge>
    </timestep>
    <timestep time="150.00">
        <edge id="1to22.17">
            <vehicle id="441" pos="980.39" speed="30.01"/>
        </edge>
    </timestep>
    <timestep time="151.00">
        <edge id="1to22.17">
            <vehicle id="441" pos="980.39" speed="30.01"/>
        </edge>
    </timestep>
    <timestep time="152.00">
        <edge id="1to22.17">
            <vehicle id="441" pos="980.39" speed="30.01"/>
        </edge>
    </timestep>
    <timestep time="153.00">
        <edge id="1to22.17">
            <vehicle id="441" pos="1078.43" speed="30.01"/>
        </edge>
    </timestep>
    <timestep time="154.00">
        <edge id="1to22.17">
            <vehicle id="441" pos="1078.43" speed="30.01"/>
        </edge>
    </timestep>
    <timestep time="155.00">
        <edge id="1to22.17">
            <vehicle id="441" pos="1078.43" speed="30.01"/>
        </edge>
    </timestep>
    <timestep time="156.00">
        <edge id="1to22.17">
            <vehicle id="441" pos="1176.47" speed="30.01"/>
        </edge>
    </timestep>
    <timestep time="157.00">
        <edge id="1to22.17">
            <vehicle id="441" pos="1176.47" speed="30.01"/>
        </edge>
    </timestep>
    <timestep time="158.00">
        <edge id="1to22.17">
            <vehicle id="441" pos="1176.47" speed="30.01"/>
        </edge>
    </timestep>
    <timestep time="159.00">
        <edge id="1to22.17">
            <vehicle id="441" pos="1176.47" speed="30.01"/>
        </edge>
    </timestep>
    <timestep time="160.00">
        <edge id="1to22.17">
            <vehicle id="441" pos="1274.51" speed="30.01"/>
        </edge>
    </timestep>
    <timestep time="161.00">
        <edge id="1to22.17">
            <vehicle id="441" pos="1274.51" speed="30.01"/>
        </edge>
    </timestep>
    <timestep time="162.00">
        <edge id="1to22.17">
            <vehicle id="441" pos="1274.51" speed="30.01"/>
        </edge>
    </timestep>
    <timestep time="163.00">
        <edge id="1to22.17">
            <vehicle id="441" pos="1372.55" speed="30.01"/>
        </edge>
    </timestep>
    <timestep time="164.00">
        <edge id="1to22.17">
            <vehicle id="441" pos="1372.55" speed="30.01"/>
        </edge>
    </timestep>
    <timestep time="165.00">
        <edge id="1to22.17">
            <vehicle id="441" pos="1372.55" speed="30.01"/>
        </edge>
    </timestep>
    <timestep time="166.00">
        <edge id="1to22.17">
            <vehicle id="441" pos="1470.59" speed="30.01"/>
        </edge>
    </timestep>
    <timestep time="167.00">
        <edge id="1to22.17">
            <vehicle id="441" pos="1470.59" speed="30.01"/>
        </edge>
    </timestep>
    <timestep time="168.00">
        <edge id="1to22.17">
            <vehicle id="441" pos="1470.59" speed="30.01"/>
        </edge>
    </timestep>
    <timestep time="169.00">
        <edge id="1to22.17">
            <vehicle id="441" pos="1568.63" speed="30.01"/>
        </edge>
    </timestep>
    <timestep time="170.00">
        <edge id="1to22.17">
            <vehicle id="441" pos="1568.63" speed="30.01"/>
        </edge>
    </timestep>
    <timestep time="171.00">
        <edge id="1to22.17">
            <vehicle id="441" pos="1568.63" speed="30.01"/>
        </edge>
    </timestep>
    <timestep time="172.00">
        <edge id="1to22.17">
            <vehicle id="441" pos="1568.63" speed="30.01"/>
        </edge>
    </timestep>
    <timestep time="173.00">
        <edge id="1to22.17">
            <vehicle id="441" pos="1666.67" speed="30.01"/>
        </edge>
    </timestep>
    <timestep time="174.00">
        <edge id="1to22.17">
            <vehicle id="441" pos="1666.67" speed="30.01"/>
        </edge>
    </timestep>
    <timestep time="175.00">
        <edge id="1to22.17">
            <vehicle id="441" pos="1666.67" speed="30.01"/>
        </edge>
    </timestep>
    <timestep time="176.00">
        <edge id="1to22.17">
            <vehicle id="441" pos="1764.71" speed="30.01"/>
        </edge>
    </timestep>
    <timestep time="177.00">
        <edge id="1to22.17">
            <vehicle id="441" pos="1764.71" speed="30.01"/>
        </edge>
    </timestep>
    <timestep time="178.00">
        <edge id="1to22.17">
            <vehicle id="441" pos="1764.71" speed="30.01"/>
        </edge>
    </timestep>
    <timestep time="179.00">
        <edge id="1to22.17">
            <vehicle id="441" pos="1862.75" speed="30.01"/>
        </edge>
    </timestep>
    <timestep time="180.00">
        <edge id="1to22.17">
            <vehicle id="441" pos="1862.75" speed="30.01"/>
        </edge>
    </timestep>
    <timestep time="181.00">
        <edge id="1to22.17">
            <vehicle id="441" pos="1862.75" speed="30.01"/>
        </edge>
    </timestep>
    <timestep time="182.00">
        <edge id="1to22.17">
            <vehicle id="441" pos="1960.78" speed="30.01"/>
        </edge>
    </timestep>
    <timestep time="183.00">
        <edge id="1to22.17">
            <vehicle id="441" pos="1960.78" speed="30.01"/>
        </edge>
    </timestep>
    <timestep time="184.00">
        <edge id="1to22.17">
            <vehicle id="441" pos="1960.78" speed="30.01"/>
        </edge>
    </timestep>
    <timestep time="185.00">
        <edge id="1to22.17">
            <vehicle id="441" pos="1960.78" speed="30.01"/>
        </edge>
    </timestep>
    <timestep time="186.00">
        <edge id="1to22.17">
            <vehicle id="441" pos="2058.82" speed="30.01"/>
        </edge>
    </timestep>
    <timestep time="187.00">
        <edge id="1to22.17">
            <vehicle id="441" pos="2058.82" speed="30.01"/>
        </edge>
    </timestep>
    <timestep time="188.00">
        <edge id="1to22.17">
            <vehicle id="441" pos="2058.82" speed="30.01"/>
        </edge>
    </timestep>
    <timestep time="189.00">
        <edge id="1to22.17">
            <vehicle id="441" pos="2156.86" speed="30.01"/>
        </edge>
    </timestep>
    <timestep time="190.00">
        <edge id="1to22.17">
            <vehicle id="441" pos="2156.86" speed="30.01"/>
        </edge>
    </timestep>
    <timestep time="191.00">
        <edge id="1to22.17">
            <vehicle id="441" pos="2156.86" speed="30.01"/>
        </edge>
    </timestep>
    <timestep time="192.00">
        <edge id="1to22.17">
            <vehicle id="441" pos="2254.90" speed="30.01"/>
        </edge>
    </timestep>
    <timestep time="193.00">
        <edge id="1to22.17">
            <vehicle id="441" pos="2254.90" speed="30.01"/>
        </edge>
    </timestep>
    <timestep time="194.00">
        <edge id="1to22.17">
            <vehicle id="441" pos="2254.90" speed="30.01"/>
        </edge>
    </timestep>
    <timestep time="195.00">
        <edge id="1to22.17">
            <vehicle id="441" pos="2254.90" speed="30.01"/>
        </edge>
    </timestep>
    <timestep time="196.00">
        <edge id="1to22.17">
            <vehicle id="441" pos="2352.94" speed="30.01"/>
        </edge>
    </timestep>
    <timestep time="197.00">
        <edge id="1to22.17">