<?xml version="1.0" encoding="UTF-8"?>

<!-- generated on 2026-03-14T07:29:00.774038+01:00 by Eclipse SUMO sumo v1_26_0+0586-69dd46f7418
This data file and the accompanying materials
are made available under the terms of the Eclipse Public License v2.0
which accompanies this distribution, and is available at
http://www.eclipse.org/legal/epl-v20.html
This file may also be made available under the following Secondary
Licenses when the conditions for such availability set forth in the Eclipse
Public License 2.0 are satisfied: GNU General Public License, version 2
or later which is available at
https://www.gnu.org/licenses/old-licenses/gpl-2.0-standalone.html
SPDX-License-Identifier: EPL-2.0 OR GPL-2.0-or-later
<sumoConfiguration xmlns:xsi="http://www.w3.org/2001/XMLSchema-instance" xsi:noNamespaceSchemaLocation="http://sumo.dlr.de/xsd/sumoConfiguration.xsd">

    <input>
        <net-file value="net3.net.xml"/>
        <additional-files value="input_additional.add.xml,input_additional2.add.xml"/>
    </input>

    <output>
        <write-license value="true"/>
        <fcd-output value="fcd.xml"/>
        <fcd-output.attributes value="angle,pos,edge,stage"/>
    </output>

    <processing>
        <default.speeddev value="0"/>
        <pedestrian.model value="nonInteracting"/>
    </processing>

    <report>
        <xml-validation value="never"/>
        <no-step-log value="true"/>
    </report>

</sumoConfiguration>
-->

<fcd-export xmlns:xsi="http://www.w3.org/2001/XMLSchema-instance" xsi:noNamespaceSchemaLocation="http://sumo.dlr.de/xsd/fcd_file.xsd">
    <timestep time="0.00"/>
    <timestep time="1.00"/>
    <timestep time="2.00"/>
    <timestep time="3.00"/>
    <timestep time="4.00"/>
    <timestep time="5.00"/>
    <timestep time="6.00"/>
    <timestep time="7.00"/>
    <timestep time="8.00"/>
    <timestep time="9.00"/>
    <timestep time="10.00">
        <person id="p0" angle="0.00" pos="65.40" edge="SC" stage="walking"/>
    </timestep>
    <timestep time="11.00">
        <person id="p0" angle="0.00" pos="66.70" edge="SC" stage="walking"/>
    </timestep>
    <timestep time="12.00">
        <person id="p0" angle="0.00" pos="68.00" edge="SC" stage="walking"/>
    </timestep>
    <timestep time="13.00">
        <person id="p0" angle="0.00" pos="69.30" edge="SC" stage="walking"/>
    </timestep>
    <timestep time="14.00">
        <person id="p0" angle="0.00" pos="70.59" edge="SC" stage="walking"/>
    </timestep>
    <timestep time="15.00">
        <person id="p0" angle="0.00" pos="71.89" edge="SC" stage="walking"/>
    </timestep>
    <timestep time="16.00">
        <person id="p0" angle="0.00" pos="73.19" edge="SC" stage="walking"/>
    </timestep>
    <timestep time="17.00">
        <person id="p0" angle="0.00" pos="74.49" edge="SC" stage="walking"/>
    </timestep>
    <timestep time="18.00">
        <person id="p0" angle="0.00" pos="75.79" edge="SC" stage="walking"/>
    </timestep>
    <timestep time="19.00">
        <person id="p0" angle="0.00" pos="77.09" edge="SC" stage="walking"/>
    </timestep>
    <timestep time="20.00">
        <person id="p0" angle="0.00" pos="78.39" edge="SC" stage="walking"/>
    </timestep>
    <timestep time="21.00">
        <person id="p0" angle="0.00" pos="79.69" edge="SC" stage="walking"/>
    </timestep>
    <timestep time="22.00">
        <person id="p0" angle="0.00" pos="80.98" edge="SC" stage="walking"/>
    </timestep>
    <timestep time="23.00">
        <person id="p0" angle="0.00" pos="82.28" edge="SC" stage="walking"/>
    </timestep>
    <timestep time="24.00">
        <person id="p0" angle="0.00" pos="83.58" edge="SC" stage="walking"/>
    </timestep>
    <timestep time="25.00">
        <person id="p0" angle="90.00" pos="86.15" edge="EC" stage="walking"/>
    </timestep>
    <timestep time="26.00">
        <person id="p0" angle="90.00" pos="84.85" edge="EC" stage="walking"/>
    </timestep>
    <timestep time="27.00">
        <person id="p0" angle="90.00" pos="83.55" edge="EC" stage="walking"/>
    </timestep>
    <timestep time="28.00">
        <person id="p0" angle="90.00" pos="82.25" edge="EC" stage="walking"/>
    </timestep>
    <timestep time="29.00">
        <person id="p0" angle="90.00" pos="80.96" edge="EC" stage="walking"/>
    </timestep>
    <timestep time="30.00">
        <person id="p0" angle="90.00" pos="79.66" edge="EC" stage="walking"/>
    </timestep>
    <timestep time="31.00">
        <person id="p0" angle="90.00" pos="78.36" edge="EC" stage="walking"/>
    </timestep>
    <timestep time="32.00">
        <person id="p0" angle="90.00" pos="77.06" edge="EC" stage="walking"/>
    </timestep>
    <timestep time="33.00">
        <person id="p0" angle="90.00" pos="75.76" edge="EC" stage="walking"/>
    </timestep>
    <timestep time="34.00">
        <person id="p0" angle="90.00" pos="74.46" edge="EC" stage="walking"/>
    </timestep>
    <timestep time="35.00">
        <person id="p0" angle="90.00" pos="73.16" edge="EC" stage="walking"/>
    </timestep>
    <timestep time="36.00">
        <person id="p0" angle="90.00" pos="71.86" edge="EC" stage="walking"/>
    </timestep>
    <timestep time="37.00">
        <person id="p0" angle="90.00" pos="70.57" edge="EC" stage="walking"/>
    </timestep>
    <timestep time="38.00">
        <person id="p0" angle="90.00" pos="69.27" edge="EC" stage="walking"/>
    </timestep>
    <timestep time="39.00">
        <person id="p0" angle="90.00" pos="67.97" edge="EC" stage="walking"/>
    </timestep>
    <timestep time="40.00"/>
</fcd-export>
