<?xml version="1.0" encoding="UTF-8"?>

<!-- generated on 2026-03-24T15:17:40.792460+01:00 by Eclipse SUMO sumo v1_26_0+0801-7c060613526
This data file and the accompanying materials
are made available under the terms of the Eclipse Public License v2.0
which accompanies this distribution, and is available at
http://www.eclipse.org/legal/epl-v20.html
This file may also be made available under the following Secondary
Licenses when the conditions for such availability set forth in the Eclipse
Public License 2.0 are satisfied: GNU General Public License, version 2
or later which is available at
https://www.gnu.org/licenses/old-licenses/gpl-2.0-standalone.html
SPDX-License-Identifier: EPL-2.0 OR GPL-2.0-or-later
<sumoConfiguration xmlns:xsi="http://www.w3.org/2001/XMLSchema-instance" xsi:noNamespaceSchemaLocation="http://sumo.dlr.de/xsd/sumoConfiguration.xsd">

    <input>
        <net-file value="net.net.xml"/>
        <route-files value="input_routes.rou.xml"/>
        <additional-files value="input_additional.add.xml,input_additional2.add.xml"/>
    </input>

    <output>
        <write-license value="true"/>
        <vehroute-output value="vehroutes.xml"/>
        <vehroute-output.cost value="true"/>
    </output>

    <processing>
        <scale value="2"/>
        <default.speeddev value="0"/>
    </processing>

    <report>
        <xml-validation value="never"/>
        <duration-log.disable value="true"/>
        <no-step-log value="true"/>
    </report>

</sumoConfiguration>
-->

<routes xmlns:xsi="http://www.w3.org/2001/XMLSchema-instance" xsi:noNamespaceSchemaLocation="http://sumo.dlr.de/xsd/routes_file.xsd">
    <vehicle id="v.0" depart="0.00" arrival="241.00">
        <route cost="36.15" savings="0.00" edges="E0 E1 E2 E3 E4"/>
        <stop parkingArea="pa_0" duration="200.00"/>
    </vehicle>

    <vehicle id="v.2" depart="5.00" arrival="245.00">
        <routeDistribution>
            <route cost="36.19" savings="0.00" replacedOnEdge="E1" replacedOnIndex="1" reason="rr_0:parkingAreaReroute" replacedAtTime="15.00" probability="0" edges="E0 E1 E2 E3 E4"/>
            <route cost="27.44" savings="1.50" edges="E0 E1 E5 E6 E4"/>
        </routeDistribution>
        <stop parkingArea="pa_1" duration="200.00"/>
    </vehicle>

    <vehicle id="v.1" depart="2.00" arrival="445.00">
        <route cost="36.19" savings="0.00" edges="E0 E1 E2 E3 E4"/>
        <stop parkingArea="pa_0" duration="200.00"/>
    </vehicle>

    <vehicle id="v.3" depart="7.00" arrival="449.00">
        <routeDistribution>
            <route cost="36.19" savings="0.00" replacedOnEdge="E1" replacedOnIndex="1" reason="rr_0:parkingAreaReroute" replacedAtTime="17.00" probability="0" edges="E0 E1 E2 E3 E4"/>
            <route cost="27.44" savings="1.50" edges="E0 E1 E5 E6 E4"/>
        </routeDistribution>
        <stop parkingArea="pa_1" duration="200.00"/>
    </vehicle>

</routes>
