<?xml version="1.0" encoding="UTF-8"?>

<!-- generated on Mon Jun 22 17:14:15 2020 by Eclipse SUMO Version v1_6_0+0838-3434c65e73
This data file and the accompanying materials
are made available under the terms of the Eclipse Public License v2.0
which accompanies this distribution, and is available at
http://www.eclipse.org/legal/epl-v20.html
SPDX-License-Identifier: EPL-2.0
<configuration xmlns:xsi="http://www.w3.org/2001/XMLSchema-instance" xsi:noNamespaceSchemaLocation="http://sumo.dlr.de/xsd/sumoConfiguration.xsd">

    <input>
        <net-file value="net.net.xml"/>
        <route-files value="input_routes.rou.xml"/>
    </input>

    <output>
        <write-license value="true"/>
        <vehroute-output value="vehroutes.xml"/>
    </output>

    <processing>
        <default.speeddev value="0"/>
        <pedestrian.model value="nonInteracting"/>
    </processing>

    <report>
        <xml-validation value="never"/>
        <duration-log.disable value="true"/>
        <no-step-log value="true"/>
    </report>

    <mesoscopic>
        <mesosim value="true"/>
        <meso-junction-control value="true"/>
    </mesoscopic>

</configuration>
-->

<routes xmlns:xsi="http://www.w3.org/2001/XMLSchema-instance" xsi:noNamespaceSchemaLocation="http://sumo.dlr.de/xsd/routes_file.xsd">
    <vehicle id="horizontal01" depart="100.00" departPos="0.00" arrival="294.00">
        <route edges="2fi 2si 1o 1fi 1si 2o 2fi"/>
    </vehicle>

    <vehicle id="horizontal02" depart="100.00" departPos="0.00" arrival="296.00">
        <route edges="2fi 2si 1o 1fi 1si 2o 2fi"/>
    </vehicle>

    <vehicle id="horizontal03" depart="100.00" departPos="0.00" arrival="297.00">
        <route edges="2fi 2si 1o 1fi 1si 2o 2fi"/>
    </vehicle>

    <vehicle id="horizontal04" depart="100.00" departPos="0.00" arrival="299.00">
        <route edges="2fi 2si 1o 1fi 1si 2o 2fi"/>
    </vehicle>

    <vehicle id="horizontal05" depart="100.00" departPos="0.00" arrival="300.00">
        <route edges="2fi 2si 1o 1fi 1si 2o 2fi"/>
    </vehicle>

    <vehicle id="horizontal06" depart="100.00" departPos="0.00" arrival="302.00">
        <route edges="2fi 2si 1o 1fi 1si 2o 2fi"/>
    </vehicle>

    <vehicle id="horizontal07" depart="100.00" departPos="0.00" arrival="303.00">
        <route edges="2fi 2si 1o 1fi 1si 2o 2fi"/>
    </vehicle>

    <vehicle id="horizontal08" depart="108.00" departPos="0.00" arrival="305.00">
        <route edges="2fi 2si 1o 1fi 1si 2o 2fi"/>
    </vehicle>

    <vehicle id="horizontal11" depart="110.00" departPos="0.00" arrival="307.00">
        <route edges="2fi 2si 1o 1fi 1si 2o 2fi"/>
    </vehicle>

    <vehicle id="horizontal12" depart="111.00" departPos="0.00" arrival="308.00">
        <route edges="2fi 2si 1o 1fi 1si 2o 2fi"/>
    </vehicle>

    <vehicle id="horizontal13" depart="113.00" departPos="0.00" arrival="310.00">
        <route edges="2fi 2si 1o 1fi 1si 2o 2fi"/>
    </vehicle>

    <vehicle id="horizontal14" depart="114.00" departPos="0.00" arrival="311.00">
        <route edges="2fi 2si 1o 1fi 1si 2o 2fi"/>
    </vehicle>

    <vehicle id="horizontal15" depart="116.00" departPos="0.00" arrival="313.00">
        <route edges="2fi 2si 1o 1fi 1si 2o 2fi"/>
    </vehicle>

    <vehicle id="horizontal16" depart="117.00" departPos="0.00" arrival="315.00">
        <route edges="2fi 2si 1o 1fi 1si 2o 2fi"/>
    </vehicle>

    <vehicle id="horizontal17" depart="119.00" departPos="0.00" arrival="316.00">
        <route edges="2fi 2si 1o 1fi 1si 2o 2fi"/>
    </vehicle>

    <vehicle id="horizontal18" depart="121.00" departPos="0.00" arrival="318.00">
        <route edges="2fi 2si 1o 1fi 1si 2o 2fi"/>
    </vehicle>

    <vehicle id="horizontal21" depart="122.00" departPos="0.00" arrival="319.00">
        <route edges="2fi 2si 1o 1fi 1si 2o 2fi"/>
    </vehicle>

    <vehicle id="horizontal22" depart="124.00" departPos="0.00" arrival="321.00">
        <route edges="2fi 2si 1o 1fi 1si 2o 2fi"/>
    </vehicle>

    <vehicle id="horizontal23" depart="125.00" departPos="0.00" arrival="322.00">
        <route edges="2fi 2si 1o 1fi 1si 2o 2fi"/>
    </vehicle>

    <vehicle id="horizontal24" depart="127.00" departPos="0.00" arrival="382.00">
        <route edges="2fi 2si 1o 1fi 1si 2o 2fi"/>
    </vehicle>

    <vehicle id="horizontal27" depart="132.00" departPos="0.00" arrival="384.00">
        <route edges="2fi 2si 1o 1fi 1si 2o 2fi"/>
    </vehicle>

    <vehicle id="horizontal26" depart="130.00" departPos="0.00" arrival="386.00">
        <route edges="2fi 2si 1o 1fi 1si 2o 2fi"/>
    </vehicle>

    <vehicle id="horizontal28" depart="133.00" departPos="0.00" arrival="387.00">
        <route edges="2fi 2si 1o 1fi 1si 2o 2fi"/>
    </vehicle>

    <vehicle id="horizontal25" depart="129.00" departPos="0.00" arrival="389.00">
        <route edges="2fi 2si 1o 1fi 1si 2o 2fi"/>
    </vehicle>

</routes>
