<?xml version="1.0" encoding="UTF-8"?>

<!-- generated on Tue Jun 23 16:13:07 2020 by Eclipse SUMO Version v1_6_0+0948-a552c9c904
This data file and the accompanying materials
are made available under the terms of the Eclipse Public License v2.0
which accompanies this distribution, and is available at
http://www.eclipse.org/legal/epl-v20.html
SPDX-License-Identifier: EPL-2.0
<configuration xmlns:xsi="http://www.w3.org/2001/XMLSchema-instance" xsi:noNamespaceSchemaLocation="http://sumo.dlr.de/xsd/sumoConfiguration.xsd">

    <input>
        <net-file value="net.net.xml"/>
        <route-files value="input_routes.rou.xml"/>
        <additional-files value="input_additional.add.xml,input_additional2.add.xml"/>
    </input>

    <output>
        <write-license value="true"/>
        <tripinfo-output.write-unfinished value="true"/>
    </output>

    <time>
        <begin value="0"/>
        <end value="300"/>
        <step-length value="0.1"/>
    </time>

    <processing>
        <default.speeddev value="0"/>
    </processing>

    <report>
        <verbose value="true"/>
        <xml-validation value="never"/>
        <duration-log.statistics value="true"/>
        <no-step-log value="true"/>
    </report>

    <gui_only>
        <tracker-interval value="0.1"/>
    </gui_only>

</configuration>
-->

<meandata xmlns:xsi="http://www.w3.org/2001/XMLSchema-instance" xsi:noNamespaceSchemaLocation="http://sumo.dlr.de/xsd/meandata_file.xsd">
    <interval begin="0.00" end="6.00" id="dump_6">
        <edge id="1/1to2/1" sampledSeconds="15.69" traveltime="77.33" overlapTraveltime="61.04" density="27.21" laneDensity="27.21" occupancy="12.61" waitingTime="3.90" speed="1.66" departed="6" arrived="0" entered="0" left="2" laneChangedFrom="0" laneChangedTo="0"/>
        <edge id="2/1to3/1" sampledSeconds="5.50" traveltime="12.63" overlapTraveltime="13.29" density="9.54" laneDensity="9.54" occupancy="3.93" waitingTime="0.00" speed="7.61" departed="0" arrived="0" entered="2" left="0" laneChangedFrom="0" laneChangedTo="0"/>
    </interval>
    <interval begin="6.00" end="12.00" id="dump_6">
        <edge id="1/1to2/1" sampledSeconds="37.57" traveltime="45.80" overlapTraveltime="42.04" density="65.14" laneDensity="65.14" occupancy="31.87" waitingTime="16.00" speed="2.41" departed="6" arrived="0" entered="0" left="3" laneChangedFrom="0" laneChangedTo="0"/>
        <edge id="2/1to3/1" sampledSeconds="17.72" traveltime="6.92" overlapTraveltime="7.23" density="30.72" laneDensity="30.72" occupancy="14.62" waitingTime="0.00" speed="13.98" departed="0" arrived="0" entered="3" left="2" laneChangedFrom="0" laneChangedTo="0"/>
        <edge id="3/1to4/1" sampledSeconds="1.83" traveltime="4.90" overlapTraveltime="5.16" density="3.17" laneDensity="3.17" occupancy="1.48" waitingTime="0.00" speed="19.60" departed="0" arrived="0" entered="1" left="0" laneChangedFrom="0" laneChangedTo="0"/>
    </interval>
    <interval begin="12.00" end="18.00" id="dump_6">
        <edge id="1/1to2/1" sampledSeconds="47.09" traveltime="29.30" overlapTraveltime="29.18" density="81.64" laneDensity="81.64" occupancy="40.46" waitingTime="18.90" speed="3.47" departed="2" arrived="0" entered="0" left="3" laneChangedFrom="0" laneChangedTo="0"/>
        <edge id="2/1to3/1" sampledSeconds="18.56" traveltime="5.86" overlapTraveltime="6.11" density="32.18" laneDensity="32.18" occupancy="15.31" waitingTime="0.00" speed="16.56" departed="0" arrived="0" entered="2" left="3" laneChangedFrom="0" laneChangedTo="0"/>
        <edge id="3/1to4/1" sampledSeconds="14.48" traveltime="4.96" overlapTraveltime="5.22" density="25.11" laneDensity="25.11" occupancy="11.98" waitingTime="0.00" speed="19.38" departed="0" arrived="0" entered="4" left="2" laneChangedFrom="0" laneChangedTo="0"/>
        <edge id="4/1to5/1" sampledSeconds="3.50" traveltime="4.91" overlapTraveltime="5.16" density="6.06" laneDensity="6.06" occupancy="2.81" waitingTime="0.00" speed="19.58" departed="0" arrived="0" entered="2" left="0" laneChangedFrom="0" laneChangedTo="0"/>
    </interval>
    <interval begin="18.00" end="24.00" id="dump_6">
        <edge id="1/1to2/1" sampledSeconds="33.43" traveltime="13.61" overlapTraveltime="13.88" density="57.96" laneDensity="57.96" occupancy="26.95" waitingTime="1.50" speed="7.28" departed="1" arrived="0" entered="0" left="3" laneChangedFrom="0" laneChangedTo="0"/>
        <edge id="2/1to3/1" sampledSeconds="17.70" traveltime="5.56" overlapTraveltime="5.82" density="30.69" laneDensity="30.69" occupancy="14.51" waitingTime="0.00" speed="17.39" departed="0" arrived="0" entered="3" left="3" laneChangedFrom="0" laneChangedTo="0"/>
        <edge id="3/1to4/1" sampledSeconds="16.30" traveltime="5.02" overlapTraveltime="5.29" density="28.26" laneDensity="28.26" occupancy="13.36" waitingTime="0.00" speed="19.13" departed="0" arrived="0" entered="3" left="3" laneChangedFrom="0" laneChangedTo="0"/>
        <edge id="4/1to5/1" sampledSeconds="15.21" traveltime="4.98" overlapTraveltime="5.24" density="26.37" laneDensity="26.37" occupancy="12.61" waitingTime="0.00" speed="19.31" departed="0" arrived="0" entered="3" left="2" laneChangedFrom="0" laneChangedTo="0"/>
        <edge id="5/1to6/1" sampledSeconds="5.36" traveltime="4.91" overlapTraveltime="5.16" density="9.29" laneDensity="9.29" occupancy="4.42" waitingTime="0.00" speed="19.59" departed="0" arrived="0" entered="2" left="0" laneChangedFrom="0" laneChangedTo="0"/>
    </interval>
    <interval begin="24.00" end="30.00" id="dump_6">
        <edge id="1/1to2/1" sampledSeconds="27.52" traveltime="9.90" overlapTraveltime="10.20" density="47.71" laneDensity="47.71" occupancy="20.94" waitingTime="0.00" speed="9.91" departed="3" arrived="0" entered="0" left="3" laneChangedFrom="0" laneChangedTo="0"/>
        <edge id="2/1to3/1" sampledSeconds="17.09" traveltime="5.39" overlapTraveltime="5.64" density="29.63" laneDensity="29.63" occupancy="14.07" waitingTime="0.00" speed="17.92" departed="0" arrived="0" entered="3" left="3" laneChangedFrom="0" laneChangedTo="0"/>
        <edge id="3/1to4/1" sampledSeconds="16.31" traveltime="5.04" overlapTraveltime="5.31" density="28.28" laneDensity="28.28" occupancy="13.44" waitingTime="0.00" speed="19.06" departed="0" arrived="0" entered="3" left="3" laneChangedFrom="0" laneChangedTo="0"/>
        <edge id="4/1to5/1" sampledSeconds="16.22" traveltime="5.01" overlapTraveltime="5.27" density="28.12" laneDensity="28.12" occupancy="13.37" waitingTime="0.00" speed="19.17" departed="0" arrived="0" entered="3" left="3" laneChangedFrom="0" laneChangedTo="0"/>
        <edge id="5/1to6/1" sampledSeconds="15.40" traveltime="4.94" overlapTraveltime="5.20" density="26.69" laneDensity="26.69" occupancy="12.68" waitingTime="0.00" speed="19.45" departed="0" arrived="0" entered="3" left="3" laneChangedFrom="0" laneChangedTo="0"/>
        <edge id="6/1to7/1" sampledSeconds="7.75" traveltime="4.91" overlapTraveltime="5.16" density="13.44" laneDensity="13.44" occupancy="6.39" waitingTime="0.00" speed="19.60" departed="0" arrived="0" entered="3" left="0" laneChangedFrom="0" laneChangedTo="0"/>
    </interval>
    <interval begin="30.00" end="36.00" id="dump_6">
        <edge id="1/1to2/1" sampledSeconds="23.87" traveltime="9.93" overlapTraveltime="10.16" density="41.39" laneDensity="41.39" occupancy="17.33" waitingTime="0.00" speed="9.96" departed="2" arrived="0" entered="0" left="2" laneChangedFrom="0" laneChangedTo="0"/>
        <edge id="2/1to3/1" sampledSeconds="16.39" traveltime="5.18" overlapTraveltime="5.44" density="28.42" laneDensity="28.42" occupancy="13.50" waitingTime="0.00" speed="18.60" departed="0" arrived="0" entered="3" left="3" laneChangedFrom="0" laneChangedTo="0"/>
        <edge id="3/1to4/1" sampledSeconds="16.38" traveltime="5.08" overlapTraveltime="5.34" density="28.40" laneDensity="28.40" occupancy="13.52" waitingTime="0.00" speed="18.93" departed="0" arrived="0" entered="3" left="3" laneChangedFrom="0" laneChangedTo="0"/>
        <edge id="4/1to5/1" sampledSeconds="16.19" traveltime="5.00" overlapTraveltime="5.26" density="28.07" laneDensity="28.07" occupancy="13.34" waitingTime="0.00" speed="19.21" departed="0" arrived="0" entered="3" left="3" laneChangedFrom="0" laneChangedTo="0"/>
        <edge id="5/1to6/1" sampledSeconds="16.07" traveltime="5.05" overlapTraveltime="5.31" density="27.86" laneDensity="27.86" occupancy="13.25" waitingTime="0.00" speed="19.05" departed="0" arrived="0" entered="3" left="3" laneChangedFrom="0" laneChangedTo="0"/>
        <edge id="6/1to7/1" sampledSeconds="15.19" traveltime="4.93" overlapTraveltime="5.19" density="26.34" laneDensity="26.34" occupancy="12.50" waitingTime="0.00" speed="19.49" departed="0" arrived="0" entered="3" left="3" laneChangedFrom="0" laneChangedTo="0"/>
        <edge id="7/1to8/1" sampledSeconds="10.14" traveltime="4.90" overlapTraveltime="5.16" density="17.58" laneDensity="17.58" occupancy="8.35" waitingTime="0.00" speed="19.60" departed="0" arrived="0" entered="3" left="1" laneChangedFrom="0" laneChangedTo="0"/>
        <edge id="8/1to9/1" sampledSeconds="0.53" traveltime="4.90" overlapTraveltime="5.16" density="0.92" laneDensity="0.92" occupancy="0.35" waitingTime="0.00" speed="19.60" departed="0" arrived="0" entered="1" left="0" laneChangedFrom="0" laneChangedTo="0"/>
    </interval>
    <interval begin="36.00" end="42.00" id="dump_6">
        <edge id="1/1to2/1" sampledSeconds="23.00" traveltime="9.59" overlapTraveltime="9.88" density="39.87" laneDensity="39.87" occupancy="17.20" waitingTime="0.00" speed="10.24" departed="2" arrived="0" entered="0" left="2" laneChangedFrom="0" laneChangedTo="0"/>
        <edge id="2/1to3/1" sampledSeconds="12.71" traveltime="4.93" overlapTraveltime="5.19" density="22.04" laneDensity="22.04" occupancy="10.55" waitingTime="0.00" speed="19.47" departed="0" arrived="0" entered="2" left="3" laneChangedFrom="0" laneChangedTo="0"/>
        <edge id="3/1to4/1" sampledSeconds="15.74" traveltime="5.09" overlapTraveltime="5.35" density="27.29" laneDensity="27.29" occupancy="13.08" waitingTime="0.00" speed="18.89" departed="0" arrived="0" entered="2" left="3" laneChangedFrom="0" laneChangedTo="0"/>
        <edge id="4/1to5/1" sampledSeconds="16.20" traveltime="5.01" overlapTraveltime="5.28" density="28.09" laneDensity="28.09" occupancy="13.34" waitingTime="0.00" speed="19.17" departed="0" arrived="0" entered="3" left="4" laneChangedFrom="0" laneChangedTo="0"/>
        <edge id="5/1to6/1" sampledSeconds="16.17" traveltime="5.04" overlapTraveltime="5.30" density="28.04" laneDensity="28.04" occupancy="13.33" waitingTime="0.00" speed="19.08" departed="0" arrived="0" entered="3" left="3" laneChangedFrom="0" laneChangedTo="0"/>
        <edge id="6/1to7/1" sampledSeconds="15.96" traveltime="5.03" overlapTraveltime="5.29" density="27.66" laneDensity="27.66" occupancy="13.16" waitingTime="0.00" speed="19.13" departed="0" arrived="0" entered="3" left="3" laneChangedFrom="0" laneChangedTo="0"/>
        <edge id="7/1to8/1" sampledSeconds="15.16" traveltime="4.91" overlapTraveltime="5.17" density="26.28" laneDensity="26.28" occupancy="12.47" waitingTime="0.00" speed="19.57" departed="0" arrived="0" entered="3" left="3" laneChangedFrom="0" laneChangedTo="0"/>
        <edge id="8/1to9/1" sampledSeconds="11.82" traveltime="4.90" overlapTraveltime="5.16" density="20.50" laneDensity="20.50" occupancy="9.81" waitingTime="0.00" speed="19.60" departed="0" arrived="0" entered="3" left="1" laneChangedFrom="0" laneChangedTo="0"/>
        <edge id="9/1to10/1" sampledSeconds="1.47" traveltime="4.90" overlapTraveltime="5.16" density="2.54" laneDensity="2.54" occupancy="1.16" waitingTime="0.00" speed="19.60" departed="0" arrived="0" entered="1" left="0" laneChangedFrom="0" laneChangedTo="0"/>
    </interval>
    <interval begin="42.00" end="48.00" id="dump_6">
        <edge id="1/1to2/1" sampledSeconds="22.60" traveltime="9.78" overlapTraveltime="9.96" density="39.18" laneDensity="39.18" occupancy="16.95" waitingTime="0.00" speed="10.16" departed="3" arrived="0" entered="0" left="3" laneChangedFrom="0" laneChangedTo="0"/>
        <edge id="10/1to1/1" sampledSeconds="2.56" traveltime="5.61" overlapTraveltime="5.90" density="4.44" laneDensity="4.44" occupancy="1.99" waitingTime="0.00" speed="17.14" departed="0" arrived="0" entered="2" left="0" laneChangedFrom="0" laneChangedTo="0"/>
        <edge id="2/1to3/1" sampledSeconds="11.78" traveltime="4.90" overlapTraveltime="5.16" density="20.43" laneDensity="20.43" occupancy="9.57" waitingTime="0.00" speed="19.60" departed="0" arrived="0" entered="3" left="2" laneChangedFrom="0" laneChangedTo="0"/>
        <edge id="3/1to4/1" sampledSeconds="12.98" traveltime="4.94" overlapTraveltime="5.20" density="22.50" laneDensity="22.50" occupancy="10.58" waitingTime="0.00" speed="19.47" departed="0" arrived="0" entered="3" left="3" laneChangedFrom="0" laneChangedTo="0"/>
        <edge id="4/1to5/1" sampledSeconds="15.77" traveltime="5.04" overlapTraveltime="5.31" density="27.34" laneDensity="27.34" occupancy="12.94" waitingTime="0.00" speed="19.03" departed="0" arrived="0" entered="3" left="3" laneChangedFrom="0" laneChangedTo="0"/>
        <edge id="5/1to6/1" sampledSeconds="16.10" traveltime="5.01" overlapTraveltime="5.27" density="27.92" laneDensity="27.92" occupancy="13.24" waitingTime="0.00" speed="19.19" departed="0" arrived="0" entered="4" left="3" laneChangedFrom="0" laneChangedTo="0"/>
        <edge id="6/1to7/1" sampledSeconds="16.50" traveltime="5.14" overlapTraveltime="5.40" density="28.60" laneDensity="28.60" occupancy="13.62" waitingTime="0.00" speed="18.74" departed="0" arrived="0" entered="3" left="3" laneChangedFrom="0" laneChangedTo="0"/>
        <edge id="7/1to8/1" sampledSeconds="15.58" traveltime="4.96" overlapTraveltime="5.22" density="27.01" laneDensity="27.01" occupancy="12.84" waitingTime="0.00" speed="19.38" departed="0" arrived="0" entered="3" left="3" laneChangedFrom="0" laneChangedTo="0"/>
        <edge id="8/1to9/1" sampledSeconds="14.94" traveltime="4.91" overlapTraveltime="5.17" density="25.91" laneDensity="25.91" occupancy="12.30" waitingTime="0.00" speed="19.57" departed="0" arrived="0" entered="3" left="3" laneChangedFrom="0" laneChangedTo="0"/>
        <edge id="9/1to10/1" sampledSeconds="13.65" traveltime="4.98" overlapTraveltime="5.25" density="23.67" laneDensity="23.67" occupancy="11.27" waitingTime="0.00" speed="19.27" departed="0" arrived="0" entered="3" left="2" laneChangedFrom="0" laneChangedTo="0"/>
    </interval>
    <interval begin="48.00" end="54.00" id="dump_6">
        <edge id="1/1to2/1" sampledSeconds="19.84" traveltime="8.62" overlapTraveltime="8.89" density="34.39" laneDensity="34.39" occupancy="15.58" waitingTime="0.00" speed="11.37" departed="0" arrived="0" entered="1" left="2" laneChangedFrom="0" laneChangedTo="0"/>
        <edge id="10/1to1/1" sampledSeconds="17.67" traveltime="7.02" overlapTraveltime="7.44" density="30.64" laneDensity="30.64" occupancy="14.83" waitingTime="0.00" speed="13.59" departed="0" arrived="0" entered="3" left="1" laneChangedFrom="0" laneChangedTo="0"/>
        <edge id="2/1to3/1" sampledSeconds="11.83" traveltime="4.90" overlapTraveltime="5.16" density="20.51" laneDensity="20.51" occupancy="9.81" waitingTime="0.00" speed="19.60" departed="0" arrived="0" entered="2" left="2" laneChangedFrom="0" laneChangedTo="0"/>
        <edge id="3/1to4/1" sampledSeconds="11.83" traveltime="4.90" overlapTraveltime="5.16" density="20.51" laneDensity="20.51" occupancy="9.81" waitingTime="0.00" speed="19.60" departed="0" arrived="0" entered="2" left="2" laneChangedFrom="0" laneChangedTo="0"/>
        <edge id="4/1to5/1" sampledSeconds="12.39" traveltime="4.94" overlapTraveltime="5.20" density="21.48" laneDensity="21.48" occupancy="10.24" waitingTime="0.00" speed="19.46" departed="0" arrived="0" entered="2" left="2" laneChangedFrom="0" laneChangedTo="0"/>
        <edge id="5/1to6/1" sampledSeconds="15.70" traveltime="5.00" overlapTraveltime="5.26" density="27.22" laneDensity="27.22" occupancy="12.95" waitingTime="0.00" speed="19.22" departed="0" arrived="0" entered="2" left="3" laneChangedFrom="0" laneChangedTo="0"/>
        <edge id="6/1to7/1" sampledSeconds="16.40" traveltime="5.09" overlapTraveltime="5.34" density="28.44" laneDensity="28.44" occupancy="13.54" waitingTime="0.00" speed="18.92" departed="0" arrived="0" entered="3" left="3" laneChangedFrom="0" laneChangedTo="0"/>
        <edge id="7/1to8/1" sampledSeconds="16.14" traveltime="5.03" overlapTraveltime="5.29" density="27.98" laneDensity="27.98" occupancy="13.31" waitingTime="0.00" speed="19.13" departed="0" arrived="0" entered="3" left="3" laneChangedFrom="0" laneChangedTo="0"/>
        <edge id="8/1to9/1" sampledSeconds="15.41" traveltime="4.96" overlapTraveltime="5.21" density="26.72" laneDensity="26.72" occupancy="12.68" waitingTime="0.00" speed="19.40" departed="0" arrived="0" entered="3" left="3" laneChangedFrom="0" laneChangedTo="0"/>
        <edge id="9/1to10/1" sampledSeconds="15.33" traveltime="4.99" overlapTraveltime="5.27" density="26.58" laneDensity="26.58" occupancy="12.65" waitingTime="0.00" speed="19.20" departed="0" arrived="0" entered="3" left="3" laneChangedFrom="0" laneChangedTo="0"/>
    </interval>
    <interval begin="54.00" end="60.00" id="dump_6">
        <edge id="1/1to2/1" sampledSeconds="19.74" traveltime="6.42" overlapTraveltime="6.68" density="34.22" laneDensity="34.22" occupancy="16.22" waitingTime="0.00" speed="15.14" departed="0" arrived="0" entered="3" left="3" laneChangedFrom="0" laneChangedTo="0"/>
        <edge id="10/1to1/1" sampledSeconds="21.87" traveltime="7.01" overlapTraveltime="7.44" density="37.93" laneDensity="37.93" occupancy="18.07" waitingTime="0.00" speed="13.58" departed="0" arrived="0" entered="2" left="3" laneChangedFrom="0" laneChangedTo="0"/>
        <edge id="2/1to3/1" sampledSeconds="12.09" traveltime="4.91" overlapTraveltime="5.16" density="20.96" laneDensity="20.96" occupancy="9.93" waitingTime="0.00" speed="19.59" departed="0" arrived="0" entered="3" left="2" laneChangedFrom="0" laneChangedTo="0"/>
        <edge id="3/1to4/1" sampledSeconds="11.83" traveltime="4.90" overlapTraveltime="5.16" density="20.51" laneDensity="20.51" occupancy="9.81" waitingTime="0.00" speed="19.60" departed="0" arrived="0" entered="2" left="2" laneChangedFrom="0" laneChangedTo="0"/>
        <edge id="4/1to5/1" sampledSeconds="11.83" traveltime="4.90" overlapTraveltime="5.16" density="20.51" laneDensity="20.51" occupancy="9.77" waitingTime="0.00" speed="19.60" departed="0" arrived="0" entered="2" left="3" laneChangedFrom="0" laneChangedTo="0"/>
        <edge id="5/1to6/1" sampledSeconds="12.43" traveltime="4.93" overlapTraveltime="5.20" density="21.56" laneDensity="21.56" occupancy="10.21" waitingTime="0.00" speed="19.46" departed="0" arrived="0" entered="3" left="3" laneChangedFrom="0" laneChangedTo="0"/>
        <edge id="6/1to7/1" sampledSeconds="15.24" traveltime="5.02" overlapTraveltime="5.28" density="26.41" laneDensity="26.41" occupancy="12.54" waitingTime="0.00" speed="19.17" departed="0" arrived="0" entered="3" left="3" laneChangedFrom="0" laneChangedTo="0"/>
        <edge id="7/1to8/1" sampledSeconds="16.24" traveltime="5.06" overlapTraveltime="5.33" density="28.15" laneDensity="28.15" occupancy="13.39" waitingTime="0.00" speed="18.97" departed="0" arrived="0" entered="3" left="3" laneChangedFrom="0" laneChangedTo="0"/>
        <edge id="8/1to9/1" sampledSeconds="16.12" traveltime="5.05" overlapTraveltime="5.31" density="27.94" laneDensity="27.94" occupancy="13.29" waitingTime="0.00" speed="19.04" departed="0" arrived="0" entered="3" left="3" laneChangedFrom="0" laneChangedTo="0"/>
        <edge id="9/1to10/1" sampledSeconds="15.54" traveltime="5.11" overlapTraveltime="5.39" density="26.95" laneDensity="26.95" occupancy="12.84" waitingTime="0.00" speed="18.77" departed="0" arrived="0" entered="3" left="2" laneChangedFrom="0" laneChangedTo="0"/>
    </interval>
    <interval begin="60.00" end="66.00" id="dump_6">
        <edge id="1/1to2/1" sampledSeconds="20.25" traveltime="6.22" overlapTraveltime="6.49" density="35.11" laneDensity="35.11" occupancy="16.70" waitingTime="0.00" speed="15.58" departed="0" arrived="0" entered="3" left="3" laneChangedFrom="0" laneChangedTo="0"/>
        <edge id="10/1to1/1" sampledSeconds="20.58" traveltime="6.42" overlapTraveltime="6.81" density="35.69" laneDensity="35.69" occupancy="16.98" waitingTime="0.00" speed="14.85" departed="0" arrived="0" entered="3" left="3" laneChangedFrom="0" laneChangedTo="0"/>
        <edge id="2/1to3/1" sampledSeconds="15.65" traveltime="5.00" overlapTraveltime="5.26" density="27.14" laneDensity="27.14" occupancy="12.87" waitingTime="0.00" speed="19.24" departed="0" arrived="0" entered="3" left="3" laneChangedFrom="0" laneChangedTo="0"/>
        <edge id="3/1to4/1" sampledSeconds="12.45" traveltime="4.91" overlapTraveltime="5.16" density="21.58" laneDensity="21.58" occupancy="10.12" waitingTime="0.00" speed="19.59" departed="0" arrived="0" entered="3" left="3" laneChangedFrom="0" laneChangedTo="0"/>
        <edge id="4/1to5/1" sampledSeconds="11.78" traveltime="4.90" overlapTraveltime="5.16" density="20.43" laneDensity="20.43" occupancy="9.60" waitingTime="0.00" speed="19.60" departed="0" arrived="0" entered="3" left="2" laneChangedFrom="0" laneChangedTo="0"/>
        <edge id="5/1to6/1" sampledSeconds="11.76" traveltime="4.90" overlapTraveltime="5.16" density="20.39" laneDensity="20.39" occupancy="9.65" waitingTime="0.00" speed="19.60" departed="0" arrived="0" entered="2" left="2" laneChangedFrom="0" laneChangedTo="0"/>
        <edge id="6/1to7/1" sampledSeconds="12.55" traveltime="4.94" overlapTraveltime="5.20" density="21.76" laneDensity="21.76" occupancy="10.30" waitingTime="0.00" speed="19.44" departed="0" arrived="0" entered="2" left="3" laneChangedFrom="0" laneChangedTo="0"/>
        <edge id="7/1to8/1" sampledSeconds="15.73" traveltime="5.18" overlapTraveltime="5.45" density="27.27" laneDensity="27.27" occupancy="12.94" waitingTime="0.00" speed="18.54" departed="0" arrived="0" entered="3" left="3" laneChangedFrom="0" laneChangedTo="0"/>
        <edge id="8/1to9/1" sampledSeconds="15.96" traveltime="5.05" overlapTraveltime="5.31" density="27.67" laneDensity="27.67" occupancy="13.15" waitingTime="0.00" speed="19.05" departed="0" arrived="0" entered="3" left="3" laneChangedFrom="0" laneChangedTo="0"/>
        <edge id="9/1to10/1" sampledSeconds="16.39" traveltime="5.16" overlapTraveltime="5.44" density="28.42" laneDensity="28.42" occupancy="13.51" waitingTime="0.00" speed="18.59" departed="0" arrived="0" entered="3" left="3" laneChangedFrom="0" laneChangedTo="0"/>
    </interval>
    <interval begin="66.00" end="72.00" id="dump_6">
        <edge id="1/1to2/1" sampledSeconds="20.64" traveltime="6.29" overlapTraveltime="6.57" density="35.78" laneDensity="35.78" occupancy="17.06" waitingTime="0.00" speed="15.40" departed="0" arrived="0" entered="3" left="3" laneChangedFrom="0" laneChangedTo="0"/>
        <edge id="10/1to1/1" sampledSeconds="19.63" traveltime="6.01" overlapTraveltime="6.37" density="34.03" laneDensity="34.03" occupancy="16.18" waitingTime="0.00" speed="15.88" departed="0" arrived="0" entered="3" left="3" laneChangedFrom="0" laneChangedTo="0"/>
        <edge id="2/1to3/1" sampledSeconds="16.40" traveltime="5.04" overlapTraveltime="5.30" density="28.43" laneDensity="28.43" occupancy="13.51" waitingTime="0.00" speed="19.08" departed="0" arrived="0" entered="3" left="3" laneChangedFrom="0" laneChangedTo="0"/>
        <edge id="3/1to4/1" sampledSeconds="15.81" traveltime="5.03" overlapTraveltime="5.29" density="27.42" laneDensity="27.42" occupancy="13.14" waitingTime="0.00" speed="19.11" departed="0" arrived="0" entered="3" left="3" laneChangedFrom="0" laneChangedTo="0"/>
        <edge id="4/1to5/1" sampledSeconds="12.45" traveltime="4.91" overlapTraveltime="5.16" density="21.59" laneDensity="21.59" occupancy="10.35" waitingTime="0.00" speed="19.59" departed="0" arrived="0" entered="2" left="2" laneChangedFrom="0" laneChangedTo="0"/>
        <edge id="5/1to6/1" sampledSeconds="11.90" traveltime="4.90" overlapTraveltime="5.16" density="20.64" laneDensity="20.64" occupancy="9.88" waitingTime="0.00" speed="19.60" departed="0" arrived="0" entered="2" left="2" laneChangedFrom="0" laneChangedTo="0"/>
        <edge id="6/1to7/1" sampledSeconds="11.76" traveltime="4.90" overlapTraveltime="5.16" density="20.39" laneDensity="20.39" occupancy="9.75" waitingTime="0.00" speed="19.60" departed="0" arrived="0" entered="2" left="2" laneChangedFrom="0" laneChangedTo="0"/>
        <edge id="7/1to8/1" sampledSeconds="12.24" traveltime="4.91" overlapTraveltime="5.17" density="21.22" laneDensity="21.22" occupancy="10.17" waitingTime="0.00" speed="19.58" departed="0" arrived="0" entered="2" left="2" laneChangedFrom="0" laneChangedTo="0"/>
        <edge id="8/1to9/1" sampledSeconds="15.52" traveltime="5.07" overlapTraveltime="5.33" density="26.91" laneDensity="26.91" occupancy="12.89" waitingTime="0.00" speed="18.96" departed="0" arrived="0" entered="2" left="3" laneChangedFrom="0" laneChangedTo="0"/>
        <edge id="9/1to10/1" sampledSeconds="16.34" traveltime="5.23" overlapTraveltime="5.51" density="28.33" laneDensity="28.33" occupancy="13.46" waitingTime="0.00" speed="18.37" departed="0" arrived="0" entered="3" left="3" laneChangedFrom="0" laneChangedTo="0"/>
    </interval>
    <interval begin="72.00" end="78.00" id="dump_6">
        <edge id="1/1to2/1" sampledSeconds="21.04" traveltime="6.33" overlapTraveltime="6.62" density="36.48" laneDensity="36.48" occupancy="17.43" waitingTime="0.00" speed="15.28" departed="0" arrived="0" entered="3" left="3" laneChangedFrom="0" laneChangedTo="0"/>
        <edge id="10/1to1/1" sampledSeconds="18.40" traveltime="5.63" overlapTraveltime="5.98" density="31.90" laneDensity="31.90" occupancy="15.15" waitingTime="0.00" speed="16.92" departed="0" arrived="0" entered="3" left="4" laneChangedFrom="0" laneChangedTo="0"/>
        <edge id="2/1to3/1" sampledSeconds="16.58" traveltime="5.07" overlapTraveltime="5.34" density="28.74" laneDensity="28.74" occupancy="13.66" waitingTime="0.00" speed="18.95" departed="0" arrived="0" entered="3" left="3" laneChangedFrom="0" laneChangedTo="0"/>
        <edge id="3/1to4/1" sampledSeconds="16.54" traveltime="5.10" overlapTraveltime="5.36" density="28.68" laneDensity="28.68" occupancy="13.62" waitingTime="0.00" speed="18.87" departed="0" arrived="0" entered="3" left="3" laneChangedFrom="0" laneChangedTo="0"/>
        <edge id="4/1to5/1" sampledSeconds="15.52" traveltime="4.95" overlapTraveltime="5.21" density="26.91" laneDensity="26.91" occupancy="12.77" waitingTime="0.00" speed="19.43" departed="0" arrived="0" entered="4" left="3" laneChangedFrom="0" laneChangedTo="0"/>
        <edge id="5/1to6/1" sampledSeconds="13.24" traveltime="4.91" overlapTraveltime="5.16" density="22.96" laneDensity="22.96" occupancy="10.93" waitingTime="0.00" speed="19.59" departed="0" arrived="0" entered="3" left="3" laneChangedFrom="0" laneChangedTo="0"/>
        <edge id="6/1to7/1" sampledSeconds="11.90" traveltime="4.90" overlapTraveltime="5.16" density="20.64" laneDensity="20.64" occupancy="9.83" waitingTime="0.00" speed="19.60" departed="0" arrived="0" entered="2" left="3" laneChangedFrom="0" laneChangedTo="0"/>
        <edge id="7/1to8/1" sampledSeconds="11.71" traveltime="4.90" overlapTraveltime="5.16" density="20.30" laneDensity="20.30" occupancy="9.59" waitingTime="0.00" speed="19.60" departed="0" arrived="0" entered="3" left="3" laneChangedFrom="0" laneChangedTo="0"/>
        <edge id="8/1to9/1" sampledSeconds="12.41" traveltime="4.94" overlapTraveltime="5.21" density="21.51" laneDensity="21.51" occupancy="10.10" waitingTime="0.00" speed="19.43" departed="0" arrived="0" entered="3" left="3" laneChangedFrom="0" laneChangedTo="0"/>
        <edge id="9/1to10/1" sampledSeconds="15.64" traveltime="5.11" overlapTraveltime="5.38" density="27.11" laneDensity="27.11" occupancy="12.87" waitingTime="0.00" speed="18.81" departed="0" arrived="0" entered="3" left="3" laneChangedFrom="0" laneChangedTo="0"/>
    </interval>
    <interval begin="78.00" end="84.00" id="dump_6">
        <edge id="1/1to2/1" sampledSeconds="21.36" traveltime="6.32" overlapTraveltime="6.62" density="37.04" laneDensity="37.04" occupancy="17.60" waitingTime="0.00" speed="15.27" departed="0" arrived="0" entered="4" left="3" laneChangedFrom="0" laneChangedTo="0"/>
        <edge id="10/1to1/1" sampledSeconds="17.20" traveltime="5.38" overlapTraveltime="5.70" density="29.82" laneDensity="29.82" occupancy="14.04" waitingTime="0.00" speed="17.74" departed="0" arrived="0" entered="3" left="3" laneChangedFrom="0" laneChangedTo="0"/>
        <edge id="2/1to3/1" sampledSeconds="16.89" traveltime="5.16" overlapTraveltime="5.42" density="29.29" laneDensity="29.29" occupancy="13.92" waitingTime="0.00" speed="18.67" departed="0" arrived="0" entered="3" left="3" laneChangedFrom="0" laneChangedTo="0"/>
        <edge id="3/1to4/1" sampledSeconds="16.55" traveltime="5.10" overlapTraveltime="5.36" density="28.70" laneDensity="28.70" occupancy="13.62" waitingTime="0.00" speed="18.88" departed="0" arrived="0" entered="3" left="3" laneChangedFrom="0" laneChangedTo="0"/>
        <edge id="4/1to5/1" sampledSeconds="16.37" traveltime="5.04" overlapTraveltime="5.30" density="28.38" laneDensity="28.38" occupancy="13.43" waitingTime="0.00" speed="19.09" departed="0" arrived="0" entered="3" left="3" laneChangedFrom="0" laneChangedTo="0"/>
        <edge id="5/1to6/1" sampledSeconds="15.25" traveltime="4.94" overlapTraveltime="5.19" density="26.43" laneDensity="26.43" occupancy="12.54" waitingTime="0.00" speed="19.48" departed="0" arrived="0" entered="3" left="2" laneChangedFrom="0" laneChangedTo="0"/>