<?xml version="1.0" encoding="UTF-8"?>

<!-- generated on Wed Oct 28 11:22:14 2015 by SUMO Version dev-SVN-r19189
<?xml version="1.0" encoding="UTF-8"?>

<configuration xmlns:xsi="http://www.w3.org/2001/XMLSchema-instance" xsi:noNamespaceSchemaLocation="http://sumo.dlr.de/xsd/sumoConfiguration.xsd">

    <input>
        <net-file value="net.net.xml"/>
        <route-files value="input_routes.rou.xml"/>
    </input>

    <output>
        <tripinfo-output value="tripinfos.xml"/>
    </output>

    <processing>
        <lateral-resolution value="0.8"/>
    </processing>

    <report>
        <xml-validation value="never"/>
        <no-step-log value="true"/>
    </report>

</configuration>
-->

<tripinfos xmlns:xsi="http://www.w3.org/2001/XMLSchema-instance" xsi:noNamespaceSchemaLocation="http://sumo.dlr.de/xsd/tripinfo_file.xsd">
    <tripinfo id="car" depart="0.00" departLane="beg_0" departPos="0.00" departSpeed="0.00" departDelay="0.00" arrival="52.00" arrivalLane="beg_0" arrivalPos="500.00" arrivalSpeed="13.30" duration="52.00" routeLength="500.00" waitSteps="5" timeLoss="15.93" rerouteNo="0" devices="tripinfo_car" vType="car" vaporized=""/>
    <tripinfo id="wide" depart="2.00" departLane="beg_1" departPos="0.00" departSpeed="0.00" departDelay="0.00" arrival="54.00" arrivalLane="beg_1" arrivalPos="500.00" arrivalSpeed="16.21" duration="52.00" routeLength="500.00" waitSteps="3" timeLoss="27.57" rerouteNo="0" devices="tripinfo_wide" vType="wide_car" vaporized=""/>
</tripinfos>
