<?xml version="1.0" encoding="UTF-8"?>

<!-- generated on Wed Jan  3 09:21:37 2018 by SUMO Version v0_32_0+0043-24523c2
<?xml version="1.0" encoding="UTF-8"?>

<configuration xmlns:xsi="http://www.w3.org/2001/XMLSchema-instance" xsi:noNamespaceSchemaLocation="http://sumo.dlr.de/xsd/sumoConfiguration.xsd">

    <input>
        <net-file value="net3.net.xml"/>
        <route-files value="input_routes.rou.xml"/>
        <additional-files value="input_additional2.add.xml"/>
    </input>

    <output>
        <tripinfo-output value="tripinfos.xml"/>
    </output>

    <processing>
        <collision.check-junctions value="true"/>
        <pedestrian.model value="striping"/>
        <pedestrian.striping.dawdling value="0"/>
    </processing>

    <report>
        <xml-validation value="never"/>
        <no-step-log value="true"/>
    </report>

</configuration>
-->

<tripinfos xmlns:xsi="http://www.w3.org/2001/XMLSchema-instance" xsi:noNamespaceSchemaLocation="http://sumo.dlr.de/xsd/tripinfo_file.xsd">
    <tripinfo id="v1" depart="0.00" departLane="EC_1" departPos="50.00" departSpeed="0.00" departDelay="0.00" arrival="14.00" arrivalLane="CN_1" arrivalPos="93.15" arrivalSpeed="13.89" duration="14.00" routeLength="144.68" waitingTime="0.00" stopTime="0.00" timeLoss="3.10" rerouteNo="0" devices="tripinfo_v1" vType="t0" speedFactor="1.00" vaporized=""/>
    <tripinfo id="v2" depart="1.00" departLane="EC_1" departPos="0.00" departSpeed="0.00" departDelay="0.00" arrival="18.00" arrivalLane="CW_1" arrivalPos="93.15" arrivalSpeed="13.89" duration="17.00" routeLength="200.00" waitingTime="0.00" stopTime="0.00" timeLoss="2.19" rerouteNo="0" devices="tripinfo_v2" vType="t0" speedFactor="1.00" vaporized=""/>
    <tripinfo id="v0" depart="0.00" departLane="WC_1" departPos="60.00" departSpeed="0.00" departDelay="0.00" arrival="21.00" arrivalLane="CN_1" arrivalPos="93.15" arrivalSpeed="13.89" duration="21.00" routeLength="140.01" waitingTime="5.00" stopTime="0.00" timeLoss="10.34" rerouteNo="0" devices="tripinfo_v0" vType="t1" speedFactor="1.00" vaporized=""/>
    <personinfo id="p0" depart="0.00">
        <walk depart="0.00" departPos="88.15" arrival="87.00" arrivalPos="0.00" duration="87.00" routeLength="109.63" timeLoss="8.07" maxSpeed="1.39"/>
    </personinfo>
</tripinfos>
