<?xml version="1.0"?>

<!-- generated on 08/23/10 14:37:22 by SUMO sumo Version dev-SVN-r8970
<configuration>

    <input>
        <net-file value="net.net.xml"/>
        <route-files value="input_routes.rou.xml"/>
    </input>

    <output>
        <tripinfo-output value="tripinfos.xml"/>
        <vehroute-output value="vehroutes.xml"/>
    </output>

    <processing>
        <route-steps value="1"/>
    </processing>

    <report>
        <no-duration-log value="true"/>
        <no-step-log value="true"/>
    </report>

    <mesoscopic>
        <mesosim value="true"/>
    </mesoscopic>

</configuration>
-->

<tripinfos>
    <tripinfo id="0" depart="0.00" departLane="" departPos="0.00" departSpeed="0.00" departDelay="0.00" arrival="108.00" arrivalLane="" arrivalPos="" arrivalSpeed="" duration="108.00" routeLength="2487.60" waitSteps="0" rerouteNo="0" devices="" vtype="KRAUSS_DEFAULT" vaporized=""/>
    <tripinfo id="1" depart="1.00" departLane="" departPos="0.00" departSpeed="0.00" departDelay="0.00" arrival="109.00" arrivalLane="" arrivalPos="" arrivalSpeed="" duration="108.00" routeLength="2487.60" waitSteps="0" rerouteNo="0" devices="" vtype="KRAUSS_DEFAULT" vaporized=""/>
    <tripinfo id="2" depart="2.00" departLane="" departPos="0.00" departSpeed="0.00" departDelay="0.00" arrival="110.00" arrivalLane="" arrivalPos="" arrivalSpeed="" duration="108.00" routeLength="2487.60" waitSteps="0" rerouteNo="0" devices="" vtype="KRAUSS_DEFAULT" vaporized=""/>
    <tripinfo id="3" depart="3.00" departLane="" departPos="0.00" departSpeed="0.00" departDelay="0.00" arrival="112.00" arrivalLane="" arrivalPos="" arrivalSpeed="" duration="109.00" routeLength="2487.60" waitSteps="0" rerouteNo="0" devices="" vtype="KRAUSS_DEFAULT" vaporized=""/>
    <tripinfo id="4" depart="4.00" departLane="" departPos="0.00" departSpeed="0.00" departDelay="0.00" arrival="113.00" arrivalLane="" arrivalPos="" arrivalSpeed="" duration="109.00" routeLength="2487.60" waitSteps="0" rerouteNo="0" devices="" vtype="KRAUSS_DEFAULT" vaporized=""/>
    <tripinfo id="5" depart="5.00" departLane="" departPos="0.00" departSpeed="0.00" departDelay="0.00" arrival="115.00" arrivalLane="" arrivalPos="" arrivalSpeed="" duration="110.00" routeLength="2487.60" waitSteps="0" rerouteNo="0" devices="" vtype="KRAUSS_DEFAULT" vaporized=""/>
    <tripinfo id="6" depart="6.00" departLane="" departPos="0.00" departSpeed="0.00" departDelay="0.00" arrival="116.00" arrivalLane="" arrivalPos="" arrivalSpeed="" duration="110.00" routeLength="2487.60" waitSteps="0" rerouteNo="0" devices="" vtype="KRAUSS_DEFAULT" vaporized=""/>
    <tripinfo id="7" depart="700.00" departLane="" departPos="0.00" departSpeed="0.00" departDelay="0.00" arrival="808.00" arrivalLane="" arrivalPos="" arrivalSpeed="" duration="108.00" routeLength="2487.60" waitSteps="0" rerouteNo="0" devices="" vtype="KRAUSS_DEFAULT" vaporized=""/>
    <tripinfo id="0" depart="800.00" departLane="" departPos="0.00" departSpeed="0.00" departDelay="0.00" arrival="908.00" arrivalLane="" arrivalPos="" arrivalSpeed="" duration="108.00" routeLength="2487.60" waitSteps="0" rerouteNo="0" devices="" vtype="KRAUSS_DEFAULT" vaporized=""/>
</tripinfos>
