<?xml version="1.0"?>

<!-- generated on 04/18/08 08:43:49 by SUMO sumo Version 0.9.7
<configuration>

   <input>
      <net-file>net.net.xml</net-file>
      <route-files>input_routes.rou.xml</route-files>
   </input>

   <output>
      <tripinfo-output>tripinfos.xml</tripinfo-output>
   </output>

   <processing>
      <route-steps>1</route-steps>
      <no-duration-log>true</no-duration-log>
      <no-step-log>true</no-step-log>
   </processing>

</configuration>
-->

<tripinfos>
    <tripinfo id="0" depart="0" departLane="beg_0" departPos="0.00" departSpeed="0.00" departDelay="0" arrival="123" arrivalLane="end_0" arrivalPos="21.95" arrivalSpeed="27.49" duration="123" routeLength="2011.20" waitSteps="0" rerouteNo="0" devices="" vtype="KRAUSS_DEFAULT" vaporized=""/>
    <tripinfo id="1" depart="2" departLane="beg_0" departPos="0.00" departSpeed="0.00" departDelay="1" arrival="124" arrivalLane="end_0" arrivalPos="3.97" arrivalSpeed="27.73" duration="122" routeLength="1993.22" waitSteps="0" rerouteNo="0" devices="" vtype="KRAUSS_DEFAULT" vaporized=""/>
    <tripinfo id="2" depart="5" departLane="beg_0" departPos="0.00" departSpeed="0.00" departDelay="3" arrival="127" arrivalLane="end_0" arrivalPos="18.83" arrivalSpeed="27.25" duration="122" routeLength="2008.08" waitSteps="0" rerouteNo="0" devices="" vtype="KRAUSS_DEFAULT" vaporized=""/>
    <tripinfo id="3" depart="7" departLane="beg_0" departPos="0.00" departSpeed="0.00" departDelay="4" arrival="130" arrivalLane="end_0" arrivalPos="26.85" arrivalSpeed="27.27" duration="123" routeLength="2016.10" waitSteps="0" rerouteNo="0" devices="" vtype="KRAUSS_DEFAULT" vaporized=""/>
    <tripinfo id="4" depart="10" departLane="beg_0" departPos="0.00" departSpeed="0.00" departDelay="6" arrival="132" arrivalLane="end_0" arrivalPos="5.11" arrivalSpeed="27.66" duration="122" routeLength="1994.36" waitSteps="0" rerouteNo="0" devices="" vtype="KRAUSS_DEFAULT" vaporized=""/>
    <tripinfo id="5" depart="13" departLane="beg_0" departPos="0.00" departSpeed="0.00" departDelay="8" arrival="136" arrivalLane="end_0" arrivalPos="21.43" arrivalSpeed="27.33" duration="123" routeLength="2010.68" waitSteps="0" rerouteNo="0" devices="" vtype="KRAUSS_DEFAULT" vaporized=""/>
    <tripinfo id="6" depart="15" departLane="beg_0" departPos="0.00" departSpeed="0.00" departDelay="9" arrival="138" arrivalLane="end_0" arrivalPos="16.02" arrivalSpeed="27.49" duration="123" routeLength="2005.27" waitSteps="0" rerouteNo="0" devices="" vtype="KRAUSS_DEFAULT" vaporized=""/>
    <tripinfo id="7" depart="700" departLane="beg_0" departPos="0.00" departSpeed="0.00" departDelay="0" arrival="822" arrivalLane="end_0" arrivalPos="25.98" arrivalSpeed="27.46" duration="122" routeLength="2015.23" waitSteps="0" rerouteNo="0" devices="" vtype="KRAUSS_DEFAULT" vaporized=""/>
    <tripinfo id="0" depart="800" departLane="beg_0" departPos="0.00" departSpeed="0.00" departDelay="0" arrival="923" arrivalLane="end_0" arrivalPos="21.95" arrivalSpeed="27.13" duration="123" routeLength="2011.20" waitSteps="0" rerouteNo="0" devices="" vtype="KRAUSS_DEFAULT" vaporized=""/>
</tripinfos>
