<?xml version="1.0"?>

<!-- generated on 02/15/12 13:50:36 by SUMO sumo Version dev-SVN-r11894
<?xml version="1.0" encoding="UTF-8"?>

<configuration xmlns:xsi="http://www.w3.org/2001/XMLSchema-instance" xsi:noNamespaceSchemaLocation="http://sumo.sf.net/xsd/sumoConfiguration.xsd">

    <input>
        <net-file value="net.net.xml"/>
        <route-files value="input_routes.rou.xml"/>
    </input>

    <output>
        <tripinfo-output value="tripinfos.xml"/>
        <vehroute-output value="vehroutes.xml"/>
    </output>

    <processing>
        <route-steps value="1"/>
    </processing>

    <report>
        <no-duration-log value="true"/>
        <no-step-log value="true"/>
    </report>

</configuration>
-->

<tripinfos>
    <tripinfo id="0" depart="0.00" departLane="beg_0" departPos="3.10" departSpeed="0.00" departDelay="0.00" arrival="140.00" arrivalLane="rend_1" arrivalPos="506.73" arrivalSpeed="26.77" duration="140.00" routeLength="2491.23" waitSteps="0" rerouteNo="0" devices="vehroute_0 tripinfo_0" vType="KRAUSS_DEFAULT" vaporized="">
    </tripinfo>
    <tripinfo id="1" depart="3.00" departLane="beg_0" departPos="3.10" departSpeed="0.00" departDelay="2.00" arrival="143.00" arrivalLane="rend_1" arrivalPos="509.92" arrivalSpeed="26.75" duration="140.00" routeLength="2494.42" waitSteps="0" rerouteNo="0" devices="vehroute_1 tripinfo_1" vType="KRAUSS_DEFAULT" vaporized="">
    </tripinfo>
    <tripinfo id="2" depart="5.00" departLane="beg_0" departPos="3.10" departSpeed="0.00" departDelay="3.00" arrival="146.00" arrivalLane="rend_1" arrivalPos="504.04" arrivalSpeed="27.14" duration="141.00" routeLength="2488.54" waitSteps="0" rerouteNo="0" devices="vehroute_2 tripinfo_2" vType="KRAUSS_DEFAULT" vaporized="">
    </tripinfo>
    <tripinfo id="3" depart="8.00" departLane="beg_0" departPos="3.10" departSpeed="0.00" departDelay="5.00" arrival="149.00" arrivalLane="rend_1" arrivalPos="525.26" arrivalSpeed="26.89" duration="141.00" routeLength="2509.76" waitSteps="0" rerouteNo="0" devices="vehroute_3 tripinfo_3" vType="KRAUSS_DEFAULT" vaporized="">
    </tripinfo>
    <tripinfo id="4" depart="10.00" departLane="beg_0" departPos="3.10" departSpeed="0.00" departDelay="6.00" arrival="150.00" arrivalLane="rend_1" arrivalPos="500.88" arrivalSpeed="27.02" duration="140.00" routeLength="2485.38" waitSteps="0" rerouteNo="0" devices="vehroute_4 tripinfo_4" vType="KRAUSS_DEFAULT" vaporized="">
    </tripinfo>
    <tripinfo id="5" depart="13.00" departLane="beg_0" departPos="3.10" departSpeed="0.00" departDelay="8.00" arrival="154.00" arrivalLane="rend_1" arrivalPos="508.04" arrivalSpeed="27.73" duration="141.00" routeLength="2492.54" waitSteps="0" rerouteNo="0" devices="vehroute_5 tripinfo_5" vType="KRAUSS_DEFAULT" vaporized="">
    </tripinfo>
    <tripinfo id="6" depart="15.00" departLane="beg_0" departPos="3.10" departSpeed="0.00" departDelay="9.00" arrival="156.00" arrivalLane="rend_1" arrivalPos="504.08" arrivalSpeed="26.99" duration="141.00" routeLength="2488.58" waitSteps="0" rerouteNo="0" devices="vehroute_6 tripinfo_6" vType="KRAUSS_DEFAULT" vaporized="">
    </tripinfo>
    <tripinfo id="7" depart="700.00" departLane="beg_0" departPos="3.10" departSpeed="0.00" departDelay="0.00" arrival="840.00" arrivalLane="rend_1" arrivalPos="518.57" arrivalSpeed="27.61" duration="140.00" routeLength="2503.07" waitSteps="0" rerouteNo="0" devices="vehroute_7 tripinfo_7" vType="KRAUSS_DEFAULT" vaporized="">
    </tripinfo>
    <tripinfo id="0" depart="800.00" departLane="beg_0" departPos="3.10" departSpeed="0.00" departDelay="0.00" arrival="941.00" arrivalLane="rend_1" arrivalPos="527.45" arrivalSpeed="27.70" duration="141.00" routeLength="2511.95" waitSteps="0" rerouteNo="0" devices="vehroute_0 tripinfo_0" vType="KRAUSS_DEFAULT" vaporized="">
    </tripinfo>
</tripinfos>
