<?xml version="1.0"?>

<!-- generated on 22.03.2013 10:44:25 by SUMO gui Version dev-SVN-r13521
<?xml version="1.0" encoding="UTF-8"?>

<configuration xmlns:xsi="http://www.w3.org/2001/XMLSchema-instance" xsi:noNamespaceSchemaLocation="http://sumo.sf.net/xsd/sumo-gui.exeConfiguration.xsd">

    <input>
        <net-file value="net.net.xml"/>
        <route-files value="input_routes.rou.xml"/>
    </input>

    <output>
        <tripinfo-output value="tripinfos.xml"/>
        <vehroute-output value="vehroutes.xml"/>
        <save-state.prefix value="state"/>
    </output>

    <processing>
        <route-steps value="1"/>
    </processing>

    <report>
        <message-log value="guisim.stdout"/>
        <error-log value="guisim.stderr"/>
        <no-duration-log value="true"/>
        <no-step-log value="true"/>
    </report>

    <mesoscopic>
        <mesosim value="true"/>
    </mesoscopic>

    <gui_only>
        <quit-on-end value="true"/>
        <start value="true"/>
    </gui_only>

</configuration>
-->

<tripinfos>
    <tripinfo id="0" depart="0.00" departLane="" departPos="0.00" departSpeed="27.81" departDelay="0.00" arrival="126.00" arrivalLane="" arrivalPos="500.00" arrivalSpeed="27.80" duration="126.00" routeLength="2487.60" waitSteps="0" rerouteNo="0" devices="vehroute_0 tripinfo_0" vType="KRAUSS_DEFAULT" vaporized=""/>
    <tripinfo id="1" depart="1.00" departLane="" departPos="0.00" departSpeed="27.81" departDelay="0.00" arrival="127.00" arrivalLane="" arrivalPos="500.00" arrivalSpeed="27.80" duration="126.00" routeLength="2487.60" waitSteps="0" rerouteNo="0" devices="vehroute_1 tripinfo_1" vType="KRAUSS_DEFAULT" vaporized=""/>
    <tripinfo id="2" depart="2.00" departLane="" departPos="0.00" departSpeed="27.81" departDelay="0.00" arrival="128.00" arrivalLane="" arrivalPos="500.00" arrivalSpeed="27.80" duration="126.00" routeLength="2487.60" waitSteps="0" rerouteNo="0" devices="vehroute_2 tripinfo_2" vType="KRAUSS_DEFAULT" vaporized=""/>
    <tripinfo id="3" depart="3.00" departLane="" departPos="0.00" departSpeed="27.81" departDelay="0.00" arrival="130.00" arrivalLane="" arrivalPos="500.00" arrivalSpeed="27.80" duration="127.00" routeLength="2487.60" waitSteps="0" rerouteNo="0" devices="vehroute_3 tripinfo_3" vType="KRAUSS_DEFAULT" vaporized=""/>
    <tripinfo id="4" depart="4.00" departLane="" departPos="0.00" departSpeed="27.81" departDelay="0.00" arrival="131.00" arrivalLane="" arrivalPos="500.00" arrivalSpeed="27.80" duration="127.00" routeLength="2487.60" waitSteps="0" rerouteNo="0" devices="vehroute_4 tripinfo_4" vType="KRAUSS_DEFAULT" vaporized=""/>
    <tripinfo id="5" depart="5.00" departLane="" departPos="0.00" departSpeed="27.81" departDelay="0.00" arrival="133.00" arrivalLane="" arrivalPos="500.00" arrivalSpeed="27.80" duration="128.00" routeLength="2487.60" waitSteps="0" rerouteNo="0" devices="vehroute_5 tripinfo_5" vType="KRAUSS_DEFAULT" vaporized=""/>
    <tripinfo id="6" depart="6.00" departLane="" departPos="0.00" departSpeed="27.81" departDelay="0.00" arrival="134.00" arrivalLane="" arrivalPos="500.00" arrivalSpeed="27.80" duration="128.00" routeLength="2487.60" waitSteps="0" rerouteNo="0" devices="vehroute_6 tripinfo_6" vType="KRAUSS_DEFAULT" vaporized=""/>
    <tripinfo id="7" depart="700.00" departLane="" departPos="0.00" departSpeed="27.81" departDelay="0.00" arrival="826.00" arrivalLane="" arrivalPos="500.00" arrivalSpeed="27.80" duration="126.00" routeLength="2487.60" waitSteps="0" rerouteNo="0" devices="vehroute_7 tripinfo_7" vType="KRAUSS_DEFAULT" vaporized=""/>
    <tripinfo id="0" depart="800.00" departLane="" departPos="0.00" departSpeed="27.81" departDelay="0.00" arrival="926.00" arrivalLane="" arrivalPos="500.00" arrivalSpeed="27.80" duration="126.00" routeLength="2487.60" waitSteps="0" rerouteNo="0" devices="vehroute_0 tripinfo_0" vType="KRAUSS_DEFAULT" vaporized=""/>
</tripinfos>
