<?xml version="1.0"?>

<!-- generated on 11/18/10 13:56:12 by SUMO sumo Version dev-SVN-r9369
<?xml version="1.0" encoding="iso-8859-1"?>

<configuration xmlns:xsi="http://www.w3.org/2001/XMLSchema-instance" xsi:noNamespaceSchemaLocation="http://sumo.sf.net/xsd/sumoConfiguration.xsd">

    <input>
        <net-file value="net.net.xml"/>
        <route-files value="input_routes.rou.xml"/>
    </input>

    <output>
        <tripinfo-output value="tripinfos.xml"/>
        <vehroute-output value="vehroutes.xml"/>
    </output>

    <processing>
        <route-steps value="1"/>
    </processing>

    <report>
        <no-duration-log value="true"/>
        <no-step-log value="true"/>
    </report>

</configuration>
-->

<tripinfos>
    <tripinfo id="0" depart="0.00" departLane="beg_0" departPos="5.10" departSpeed="0.00" departDelay="0.00" arrival="122.00" arrivalLane="rend_0" arrivalPos="14.54" arrivalSpeed="27.43" duration="122.00" routeLength="1997.04" waitSteps="0" rerouteNo="0" devices="vehroute_0 tripinfo_0" vtype="KRAUSS_DEFAULT" vaporized="">
    </tripinfo>
    <tripinfo id="1" depart="3.00" departLane="beg_0" departPos="5.10" departSpeed="0.00" departDelay="2.00" arrival="124.00" arrivalLane="rend_0" arrivalPos="0.19" arrivalSpeed="27.73" duration="121.00" routeLength="1982.69" waitSteps="0" rerouteNo="0" devices="vehroute_1 tripinfo_1" vtype="KRAUSS_DEFAULT" vaporized="">
    </tripinfo>
    <tripinfo id="2" depart="5.00" departLane="beg_0" departPos="5.10" departSpeed="0.00" departDelay="3.00" arrival="127.00" arrivalLane="rend_0" arrivalPos="25.76" arrivalSpeed="27.25" duration="122.00" routeLength="2008.26" waitSteps="0" rerouteNo="0" devices="vehroute_2 tripinfo_2" vtype="KRAUSS_DEFAULT" vaporized="">
    </tripinfo>
    <tripinfo id="3" depart="7.00" departLane="beg_0" departPos="5.10" departSpeed="0.00" departDelay="4.00" arrival="129.00" arrivalLane="rend_0" arrivalPos="14.36" arrivalSpeed="27.25" duration="122.00" routeLength="1996.86" waitSteps="0" rerouteNo="0" devices="vehroute_3 tripinfo_3" vtype="KRAUSS_DEFAULT" vaporized="">
    </tripinfo>
    <tripinfo id="4" depart="9.00" departLane="beg_0" departPos="5.10" departSpeed="0.00" departDelay="5.00" arrival="131.00" arrivalLane="rend_0" arrivalPos="0.89" arrivalSpeed="27.30" duration="122.00" routeLength="1983.39" waitSteps="0" rerouteNo="0" devices="vehroute_4 tripinfo_4" vtype="KRAUSS_DEFAULT" vaporized="">
    </tripinfo>
    <tripinfo id="5" depart="12.00" departLane="beg_0" departPos="5.10" departSpeed="0.00" departDelay="7.00" arrival="134.00" arrivalLane="rend_0" arrivalPos="21.51" arrivalSpeed="27.64" duration="122.00" routeLength="2004.01" waitSteps="0" rerouteNo="0" devices="vehroute_5 tripinfo_5" vtype="KRAUSS_DEFAULT" vaporized="">
    </tripinfo>
    <tripinfo id="6" depart="14.00" departLane="beg_0" departPos="5.10" departSpeed="0.00" departDelay="8.00" arrival="137.00" arrivalLane="rend_0" arrivalPos="26.83" arrivalSpeed="27.47" duration="123.00" routeLength="2009.33" waitSteps="0" rerouteNo="0" devices="vehroute_6 tripinfo_6" vtype="KRAUSS_DEFAULT" vaporized="">
    </tripinfo>
    <tripinfo id="7" depart="700.00" departLane="beg_0" departPos="5.10" departSpeed="0.00" departDelay="0.00" arrival="822.00" arrivalLane="rend_0" arrivalPos="22.75" arrivalSpeed="27.66" duration="122.00" routeLength="2005.25" waitSteps="0" rerouteNo="0" devices="vehroute_7 tripinfo_7" vtype="KRAUSS_DEFAULT" vaporized="">
    </tripinfo>
    <tripinfo id="0" depart="800.00" departLane="beg_0" departPos="5.10" departSpeed="0.00" departDelay="0.00" arrival="922.00" arrivalLane="rend_0" arrivalPos="23.75" arrivalSpeed="27.12" duration="122.00" routeLength="2006.25" waitSteps="0" rerouteNo="0" devices="vehroute_0 tripinfo_0" vtype="KRAUSS_DEFAULT" vaporized="">
    </tripinfo>
</tripinfos>
