<?xml version="1.0"?>

<!-- generated on 03/25/10 08:17:09 by SUMO sumo Version dev-SVN-r8511
<configuration>

    <input>
        <net-file value="net.net.xml"/>
        <route-files value="input_routes.rou.xml"/>
    </input>

    <output>
        <tripinfo-output value="tripinfos.xml"/>
        <vehroute-output value="vehroutes.xml"/>
    </output>

    <processing>
        <route-steps value="1"/>
    </processing>

    <report>
        <no-duration-log value="true"/>
        <no-step-log value="true"/>
    </report>

    <mesoscopic>
        <mesosim value="true"/>
    </mesoscopic>

</configuration>
-->

<routes>
    <vehicle id="0" depart="0.00" arrival="108.00">
        <route edges="beg middle end rend"/>
    </vehicle>

    <vehicle id="1" depart="2.00" arrival="110.00">
        <route edges="beg middle end rend"/>
    </vehicle>

    <vehicle id="2" depart="2.00" arrival="111.00">
        <route edges="beg middle end rend"/>
    </vehicle>

    <vehicle id="3" depart="4.00" arrival="112.00">
        <route edges="beg middle end rend"/>
    </vehicle>

    <vehicle id="4" depart="4.00" arrival="114.00">
        <route edges="beg middle end rend"/>
    </vehicle>

    <vehicle id="5" depart="6.00" arrival="115.00">
        <route edges="beg middle end rend"/>
    </vehicle>

    <vehicle id="6" depart="6.00" arrival="117.00">
        <route edges="beg middle end rend"/>
    </vehicle>

    <vehicle id="7" depart="700.00" arrival="808.00">
        <route edges="beg middle end rend"/>
    </vehicle>

    <vehicle id="0" depart="800.00" arrival="908.00">
        <route edges="beg middle end rend"/>
    </vehicle>

</routes>
