<?xml version="1.0"?>

<!-- generated on 07/21/10 12:13:20 by SUMO sumo Version dev-SVN-r8163
<configuration>

    <input>
        <net-file value="net.net.xml"/>
        <route-files value="input_routes.rou.xml"/>
    </input>

    <output>
        <tripinfo-output value="tripinfos.xml"/>
        <vehroute-output value="vehroutes.xml"/>
    </output>

    <processing>
        <route-steps value="1"/>
    </processing>

    <report>
        <no-duration-log value="true"/>
        <no-step-log value="true"/>
    </report>

</configuration>
-->

<routes>
    <vehicle id="0" depart="0.00" arrival="122.00">
        <route edges="beg middle end rend"/>
    </vehicle>

    <vehicle id="1" depart="4.00" arrival="125.00">
        <route edges="beg middle end rend"/>
    </vehicle>

    <vehicle id="2" depart="8.00" arrival="130.00">
        <route edges="beg middle end rend"/>
    </vehicle>

    <vehicle id="3" depart="12.00" arrival="135.00">
        <route edges="beg middle end rend"/>
    </vehicle>

    <vehicle id="4" depart="16.00" arrival="138.00">
        <route edges="beg middle end rend"/>
    </vehicle>

    <vehicle id="5" depart="20.00" arrival="142.00">
        <route edges="beg middle end rend"/>
    </vehicle>

    <vehicle id="6" depart="24.00" arrival="146.00">
        <route edges="beg middle end rend"/>
    </vehicle>

    <vehicle id="7" depart="700.00" arrival="822.00">
        <route edges="beg middle end rend"/>
    </vehicle>

    <vehicle id="0" depart="800.00" arrival="922.00">
        <route edges="beg middle end rend"/>
    </vehicle>

</routes>
