<?xml version="1.0"?>

<!-- generated on Wed Aug 10 19:55:43 2011 by SUMO sumo Version dev-SVN-r11094
<?xml version="1.0" encoding="iso-8859-1"?>

<configuration xmlns:xsi="http://www.w3.org/2001/XMLSchema-instance" xsi:noNamespaceSchemaLocation="http://sumo.sf.net/xsd/sumoConfiguration.xsd">

    <input>
        <net-file value="net.net.xml"/>
        <route-files value="input_routes.rou.xml"/>
    </input>

    <output>
        <tripinfo-output value="tripinfos.xml"/>
        <vehroute-output value="vehroutes.xml"/>
    </output>

    <processing>
        <route-steps value="1"/>
    </processing>

    <report>
        <no-duration-log value="true"/>
        <no-step-log value="true"/>
    </report>

</configuration>
-->

<routes>
    <vehicle id="1" type="KRAUSS_DEFAULT" depart="3.00" arrival="136.00">
        <route edges="beg middle end rend"/>
    </vehicle>

    <vehicle id="0" type="KRAUSS_DEFAULT" depart="0.00" arrival="137.00">
        <route edges="beg middle end rend"/>
    </vehicle>

    <vehicle id="2" type="KRAUSS_DEFAULT" depart="5.00" arrival="140.00">
        <route edges="beg middle end rend"/>
    </vehicle>

    <vehicle id="3" type="KRAUSS_DEFAULT" depart="8.00" arrival="142.00">
        <route edges="beg middle end rend"/>
    </vehicle>

    <vehicle id="4" type="KRAUSS_DEFAULT" depart="10.00" arrival="144.00">
        <route edges="beg middle end rend"/>
    </vehicle>

    <vehicle id="5" type="KRAUSS_DEFAULT" depart="13.00" arrival="146.00">
        <route edges="beg middle end rend"/>
    </vehicle>

    <vehicle id="6" type="KRAUSS_DEFAULT" depart="15.00" arrival="148.00">
        <route edges="beg middle end rend"/>
    </vehicle>

    <vehicle id="7" type="KRAUSS_DEFAULT" depart="700.00" arrival="836.00">
        <route edges="beg middle end rend"/>
    </vehicle>

    <vehicle id="0" type="KRAUSS_DEFAULT" depart="800.00" arrival="936.00">
        <route edges="beg middle end rend"/>
    </vehicle>

</routes>
