<?xml version="1.0"?>

<!-- generated on 03/18/10 13:35:11 by SUMO sumo Version dev-SVN-r8460
<configuration>

    <input>
        <net-file value="net.net.xml"/>
        <route-files value="input_routes.rou.xml"/>
    </input>

    <output>
        <tripinfo-output value="tripinfos.xml"/>
        <vehroute-output value="vehroutes.xml"/>
    </output>

    <processing>
        <route-steps value="1"/>
    </processing>

    <report>
        <no-duration-log value="true"/>
        <no-step-log value="true"/>
    </report>

</configuration>
-->

<routes>
    <vehicle id="0" depart="0" arrival="123.00">
        <route edges="beg middle end rend"/>
    </vehicle>

    <vehicle id="1" depart="3" arrival="125.00">
        <route edges="beg middle end rend"/>
    </vehicle>

    <vehicle id="2" depart="5" arrival="127.00">
        <route edges="beg middle end rend"/>
    </vehicle>

    <vehicle id="3" depart="7" arrival="129.00">
        <route edges="beg middle end rend"/>
    </vehicle>

    <vehicle id="4" depart="9" arrival="132.00">
        <route edges="beg middle end rend"/>
    </vehicle>

    <vehicle id="5" depart="12" arrival="134.00">
        <route edges="beg middle end rend"/>
    </vehicle>

    <vehicle id="6" depart="14" arrival="137.00">
        <route edges="beg middle end rend"/>
    </vehicle>

    <vehicle id="7" depart="700" arrival="822.00">
        <route edges="beg middle end rend"/>
    </vehicle>

    <vehicle id="0" depart="800" arrival="922.00">
        <route edges="beg middle end rend"/>
    </vehicle>

</routes>
