<?xml version="1.0"?>

<!-- generated on 10/07/09 14:22:21 by SUMO sumo Version dev-SVN-r7822
<configuration>

    <input>
        <net-file value="net.net.xml"/>
        <route-files value="input_routes.rou.xml"/>
    </input>

    <output>
        <tripinfo-output value="tripinfos.xml"/>
        <vehroute-output value="vehroutes.xml"/>
    </output>

    <processing>
        <route-steps value="1"/>
    </processing>

    <report>
        <no-duration-log value="true"/>
        <no-step-log value="true"/>
    </report>

</configuration>
-->

<routes>
    <vehicle id="0" depart="0" arrival="122">
        <route edges="beg middle end rend"/>
   </vehicle>

    <vehicle id="1" depart="3" arrival="125">
        <route edges="beg middle end rend"/>
   </vehicle>

    <vehicle id="2" depart="5" arrival="127">
        <route edges="beg middle end rend"/>
   </vehicle>

    <vehicle id="3" depart="7" arrival="131">
        <route edges="beg middle end rend"/>
   </vehicle>

    <vehicle id="4" depart="10" arrival="133">
        <route edges="beg middle end rend"/>
   </vehicle>

    <vehicle id="5" depart="13" arrival="134">
        <route edges="beg middle end rend"/>
   </vehicle>

    <vehicle id="6" depart="15" arrival="138">
        <route edges="beg middle end rend"/>
   </vehicle>

    <vehicle id="7" depart="700" arrival="822">
        <route edges="beg middle end rend"/>
   </vehicle>

    <vehicle id="0" depart="800" arrival="922">
        <route edges="beg middle end rend"/>
   </vehicle>

</routes>
