<?xml version="1.0"?>

<!-- generated on 08/17/11 12:01:57 by SUMO sumo Version dev-SVN-r11101
<?xml version="1.0" encoding="iso-8859-1"?>

<configuration xmlns:xsi="http://www.w3.org/2001/XMLSchema-instance" xsi:noNamespaceSchemaLocation="http://sumo.sf.net/xsd/sumoConfiguration.xsd">

    <input>
        <net-file value="net.net.xml"/>
        <route-files value="input_routes.rou.xml"/>
    </input>

    <output>
        <tripinfo-output value="tripinfos.xml"/>
        <vehroute-output value="vehroutes.xml"/>
    </output>

    <processing>
        <route-steps value="1"/>
    </processing>

    <report>
        <no-duration-log value="true"/>
        <no-step-log value="true"/>
    </report>

    <mesoscopic>
        <mesosim value="true"/>
    </mesoscopic>

</configuration>
-->

<routes>
    <vehicle id="0" type="KRAUSS_DEFAULT" depart="0.00" arrival="108.00">
        <route edges="beg middle end rend"/>
    </vehicle>

    <vehicle id="1" type="KRAUSS_DEFAULT" depart="1.00" arrival="109.00">
        <route edges="beg middle end rend"/>
    </vehicle>

    <vehicle id="2" type="KRAUSS_DEFAULT" depart="2.00" arrival="110.00">
        <route edges="beg middle end rend"/>
    </vehicle>

    <vehicle id="3" type="KRAUSS_DEFAULT" depart="3.00" arrival="112.00">
        <route edges="beg middle end rend"/>
    </vehicle>

    <vehicle id="4" type="KRAUSS_DEFAULT" depart="4.00" arrival="113.00">
        <route edges="beg middle end rend"/>
    </vehicle>

    <vehicle id="5" type="KRAUSS_DEFAULT" depart="5.00" arrival="115.00">
        <route edges="beg middle end rend"/>
    </vehicle>

    <vehicle id="6" type="KRAUSS_DEFAULT" depart="6.00" arrival="116.00">
        <route edges="beg middle end rend"/>
    </vehicle>

    <vehicle id="7" type="KRAUSS_DEFAULT" depart="700.00" arrival="808.00">
        <route edges="beg middle end rend"/>
    </vehicle>

    <vehicle id="0" type="KRAUSS_DEFAULT" depart="800.00" arrival="908.00">
        <route edges="beg middle end rend"/>
    </vehicle>

</routes>
