<?xml version="1.0"?>

<!-- generated on 01/05/11 14:45:03 by SUMO sumo Version dev-SVN-r9525
<?xml version="1.0" encoding="iso-8859-1"?>

<configuration xmlns:xsi="http://www.w3.org/2001/XMLSchema-instance" xsi:noNamespaceSchemaLocation="http://sumo.sf.net/xsd/sumoConfiguration.xsd">

    <input>
        <net-file value="net.net.xml"/>
        <route-files value="input_routes.rou.xml"/>
    </input>

    <output>
        <tripinfo-output value="tripinfos.xml"/>
        <vehroute-output value="vehroutes.xml"/>
    </output>

    <processing>
        <route-steps value="1"/>
    </processing>

    <report>
        <no-duration-log value="true"/>
        <no-step-log value="true"/>
    </report>

</configuration>
-->

<routes>
    <vehicle id="0" depart="0.00" arrival="122.00">
        <route edges="beg middle end rend"/>
    </vehicle>

    <vehicle id="1" depart="3.00" arrival="125.00">
        <route edges="beg middle end rend"/>
    </vehicle>

    <vehicle id="2" depart="5.00" arrival="128.00">
        <route edges="beg middle end rend"/>
    </vehicle>

    <vehicle id="3" depart="8.00" arrival="131.00">
        <route edges="beg middle end rend"/>
    </vehicle>

    <vehicle id="4" depart="10.00" arrival="132.00">
        <route edges="beg middle end rend"/>
    </vehicle>

    <vehicle id="5" depart="13.00" arrival="136.00">
        <route edges="beg middle end rend"/>
    </vehicle>

    <vehicle id="6" depart="15.00" arrival="138.00">
        <route edges="beg middle end rend"/>
    </vehicle>

    <vehicle id="7" depart="700.00" arrival="822.00">
        <route edges="beg middle end rend"/>
    </vehicle>

    <vehicle id="0" depart="800.00" arrival="922.00">
        <route edges="beg middle end rend"/>
    </vehicle>

</routes>
