<?xml version="1.0" encoding="UTF-8"?>

<!-- generated on 2024-07-29 12:56:51 by Eclipse SUMO sumo Version v1_20_0+1449-3254765ed8f
This data file and the accompanying materials
are made available under the terms of the Eclipse Public License v2.0
which accompanies this distribution, and is available at
http://www.eclipse.org/legal/epl-v20.html
This file may also be made available under the following Secondary
Licenses when the conditions for such availability set forth in the Eclipse
Public License 2.0 are satisfied: GNU General Public License, version 2
or later which is available at
https://www.gnu.org/licenses/old-licenses/gpl-2.0-standalone.html
SPDX-License-Identifier: EPL-2.0 OR GPL-2.0-or-later
<sumoConfiguration xmlns:xsi="http://www.w3.org/2001/XMLSchema-instance" xsi:noNamespaceSchemaLocation="http://sumo.dlr.de/xsd/sumoConfiguration.xsd">

    <input>
        <net-file value="net2.net.xml"/>
        <route-files value="input_routes.rou.xml"/>
    </input>

    <output>
        <write-license value="true"/>
        <fcd-output value="fcd.xml"/>
        <vehroute-output value="vehroutes.xml"/>
        <stop-output value="stopinfos.xml"/>
    </output>

    <processing>
        <default.speeddev value="0"/>
    </processing>

    <report>
        <xml-validation value="never"/>
        <duration-log.disable value="true"/>
        <no-step-log value="true"/>
    </report>

</sumoConfiguration>
-->

<fcd-export xmlns:xsi="http://www.w3.org/2001/XMLSchema-instance" xsi:noNamespaceSchemaLocation="http://sumo.dlr.de/xsd/fcd_file.xsd">
    <timestep time="0.00">
        <vehicle id="veh0" x="113.15" y="95.05" angle="90.00" type="DEFAULT_VEHTYPE" speed="25.72" pos="5.10" lane="CE_0" slope="0.00"/>
    </timestep>
    <timestep time="1.00">
        <vehicle id="veh0" x="137.65" y="98.35" angle="90.00" type="DEFAULT_VEHTYPE" speed="24.50" pos="29.60" lane="CE_1" slope="0.00"/>
    </timestep>
    <timestep time="2.00">
        <vehicle id="veh0" x="157.65" y="98.35" angle="90.00" type="DEFAULT_VEHTYPE" speed="20.00" pos="49.60" lane="CE_1" slope="0.00"/>
    </timestep>
    <timestep time="3.00">
        <vehicle id="veh0" x="177.65" y="98.35" angle="90.00" type="DEFAULT_VEHTYPE" speed="20.00" pos="69.60" lane="CE_1" slope="0.00"/>
    </timestep>
    <timestep time="4.00">
        <vehicle id="veh0" x="200.21" y="98.49" angle="88.39" type="DEFAULT_VEHTYPE" speed="22.60" pos="0.25" lane=":E_0_0" slope="0.00"/>
    </timestep>
    <timestep time="5.00">
        <vehicle id="veh0" x="179.37" y="101.65" angle="270.00" type="DEFAULT_VEHTYPE" speed="25.20" pos="20.63" lane="EC_1" slope="0.00"/>
    </timestep>
    <timestep time="6.00">
        <vehicle id="veh0" x="151.59" y="101.65" angle="270.00" type="DEFAULT_VEHTYPE" speed="27.78" pos="48.41" lane="EC_1" slope="0.00"/>
    </timestep>
    <timestep time="7.00">
        <vehicle id="veh0" x="123.81" y="101.65" angle="270.00" type="DEFAULT_VEHTYPE" speed="27.78" pos="76.19" lane="EC_1" slope="0.00"/>
    </timestep>
    <timestep time="8.00"/>
</fcd-export>
