<?xml version="1.0" encoding="UTF-8"?>

<!-- generated on 2026-01-22T18:03:44.622491+01:00 by Eclipse SUMO sumo v1_25_0+1144-6819405d74c
This data file and the accompanying materials
are made available under the terms of the Eclipse Public License v2.0
which accompanies this distribution, and is available at
http://www.eclipse.org/legal/epl-v20.html
This file may also be made available under the following Secondary
Licenses when the conditions for such availability set forth in the Eclipse
Public License 2.0 are satisfied: GNU General Public License, version 2
or later which is available at
https://www.gnu.org/licenses/old-licenses/gpl-2.0-standalone.html
SPDX-License-Identifier: EPL-2.0 OR GPL-2.0-or-later
<sumoConfiguration xmlns:xsi="http://www.w3.org/2001/XMLSchema-instance" xsi:noNamespaceSchemaLocation="http://sumo.dlr.de/xsd/sumoConfiguration.xsd">

    <input>
        <net-file value="net.net.xml"/>
        <route-files value="input_routes.rou.xml"/>
        <additional-files value="input_additional.add.xml"/>
    </input>

    <output>
        <write-license value="true"/>
        <battery-output value="battery.xml"/>
        <battery-output.precision value="4"/>
        <chargingstations-output value="chargingstations.xml"/>
        <tripinfo-output value="tripinfos.xml"/>
    </output>

    <processing>
        <default.speeddev value="0"/>
    </processing>

    <report>
        <xml-validation value="never"/>
        <duration-log.disable value="true"/>
        <no-step-log value="true"/>
    </report>

    <battery>
        <device.stationfinder.probability value="1"/>
    </battery>

</sumoConfiguration>
-->

<tripinfos xmlns:xsi="http://www.w3.org/2001/XMLSchema-instance" xsi:noNamespaceSchemaLocation="http://sumo.dlr.de/xsd/tripinfo_file.xsd">
    <tripinfo id="veh_tow" depart="5.00" departLane="D1D2_0" departPos="280.00" departSpeed="13.89" departDelay="0.00" arrival="179.00" arrivalLane="C2B2_0" arrivalPos="500.00" arrivalSpeed="13.89" duration="174.00" routeLength="1748.60" waitingTime="0.00" waitingCount="0" stopTime="49.00" timeLoss="1.53" rerouteNo="2" devices="tripinfo_veh_tow stationfinder_veh_tow battery_veh_tow" vType="ElectricVehicle1" speedFactor="1.00" vaporized="">
        <battery depleted="0" actualBatteryCapacity="1828.99" totalEnergyConsumed="217.41" totalEnergyRegenerated="90.95"/>
    </tripinfo>
</tripinfos>
