<?xml version="1.0" encoding="UTF-8"?>

<!-- generated on Wed Jan  3 09:21:44 2018 by SUMO Version v0_32_0+0043-24523c2
<?xml version="1.0" encoding="UTF-8"?>

<configuration xmlns:xsi="http://www.w3.org/2001/XMLSchema-instance" xsi:noNamespaceSchemaLocation="http://sumo.dlr.de/xsd/sumoConfiguration.xsd">

    <input>
        <net-file value="net.net.xml"/>
        <route-files value="input_routes.rou.xml"/>
    </input>

    <output>
        <tripinfo-output value="tripinfos.xml"/>
    </output>

    <report>
        <xml-validation value="never"/>
        <duration-log.disable value="true"/>
        <no-step-log value="true"/>
    </report>

</configuration>
-->

<tripinfos xmlns:xsi="http://www.w3.org/2001/XMLSchema-instance" xsi:noNamespaceSchemaLocation="http://sumo.dlr.de/xsd/tripinfo_file.xsd">
    <tripinfo id="fast" depart="0.00" departLane="beg_0" departPos="100.00" departSpeed="40.00" departDelay="0.00" arrival="20.00" arrivalLane="beg_0" arrivalPos="900.00" arrivalSpeed="40.00" duration="20.00" routeLength="800.00" waitingTime="0.00" stopTime="0.00" timeLoss="0.00" rerouteNo="0" devices="tripinfo_fast" vType="DEFAULT_VEHTYPE" speedFactor="1.00" vaporized=""/>
    <tripinfo id="medium" depart="1.00" departLane="beg_0" departPos="100.00" departSpeed="39.17" departDelay="1.00" arrival="23.00" arrivalLane="beg_0" arrivalPos="900.00" arrivalSpeed="20.00" duration="22.00" routeLength="800.00" waitingTime="0.00" stopTime="0.00" timeLoss="2.00" rerouteNo="0" devices="tripinfo_medium" vType="DEFAULT_VEHTYPE" speedFactor="1.00" vaporized=""/>
    <tripinfo id="slow" depart="2.00" departLane="beg_0" departPos="100.00" departSpeed="38.33" departDelay="2.00" arrival="26.00" arrivalLane="beg_0" arrivalPos="900.00" arrivalSpeed="10.00" duration="24.00" routeLength="800.00" waitingTime="0.00" stopTime="0.00" timeLoss="3.96" rerouteNo="0" devices="tripinfo_slow" vType="DEFAULT_VEHTYPE" speedFactor="1.00" vaporized=""/>
</tripinfos>
