<?xml version="1.0" encoding="UTF-8"?>

<!-- generated on Tue Sep 19 14:26:43 2017 by SUMO Version dev-SVN-r26105
<?xml version="1.0" encoding="UTF-8"?>

<configuration xmlns:xsi="http://www.w3.org/2001/XMLSchema-instance" xsi:noNamespaceSchemaLocation="http://sumo.dlr.de/xsd/sumoConfiguration.xsd">

    <input>
        <net-file value="net.net.xml"/>
        <route-files value="input_routes.rou.xml"/>
    </input>

    <output>
        <fcd-output value="fcd.xml"/>
        <tripinfo-output value="tripinfos.xml"/>
        <lanechange-output value="lanechanges.xml"/>
    </output>

    <time>
        <step-length value="0.2"/>
    </time>

    <processing>
        <lateral-resolution value="0.2"/>
    </processing>

    <report>
        <xml-validation value="never"/>
        <no-step-log value="true"/>
    </report>

    <gui_only>
        <tracker-interval value="0.2"/>
    </gui_only>

</configuration>
-->

<fcd-export xmlns:xsi="http://www.w3.org/2001/XMLSchema-instance" xsi:noNamespaceSchemaLocation="http://sumo.dlr.de/xsd/fcd_file.xsd">
    <timestep time="0.00">
        <vehicle id="B" x="0.00" y="-1.65" angle="90.00" type="tB" speed="13.89" pos="0.00" lane="beg_1" slope="0.00"/>
        <vehicle id="ego" x="0.00" y="-4.95" angle="90.00" type="tEgo" speed="13.89" pos="0.00" lane="beg_0" slope="0.00"/>
    </timestep>
    <timestep time="0.20">
        <vehicle id="B" x="2.76" y="-1.65" angle="90.00" type="tB" speed="13.89" pos="2.78" lane="beg_1" slope="0.00"/>
        <vehicle id="ego" x="2.76" y="-4.91" angle="89.71" type="tEgo" speed="13.89" pos="2.78" lane="beg_0" slope="0.00"/>
    </timestep>
    <timestep time="0.40">
        <vehicle id="B" x="5.51" y="-1.61" angle="89.71" type="tB" speed="13.89" pos="5.56" lane="beg_1" slope="0.00"/>
        <vehicle id="ego" x="5.51" y="-4.83" angle="89.41" type="tEgo" speed="13.89" pos="5.56" lane="beg_0" slope="0.00"/>
    </timestep>
    <timestep time="0.60">
        <vehicle id="B" x="8.27" y="-1.57" angle="89.71" type="tB" speed="13.89" pos="8.33" lane="beg_1" slope="0.00"/>
        <vehicle id="ego" x="8.27" y="-4.71" angle="89.12" type="tEgo" speed="13.89" pos="8.33" lane="beg_0" slope="0.00"/>
    </timestep>
    <timestep time="0.80">
        <vehicle id="B" x="11.03" y="-1.49" angle="89.41" type="tB" speed="13.89" pos="11.11" lane="beg_1" slope="0.00"/>
        <vehicle id="ego" x="11.03" y="-4.55" angle="88.82" type="tEgo" speed="13.89" pos="11.11" lane="beg_0" slope="0.00"/>
    </timestep>
    <timestep time="1.00">
        <vehicle id="B" x="13.79" y="-1.41" angle="89.41" type="tB" speed="13.89" pos="13.89" lane="beg_1" slope="0.00"/>
        <vehicle id="ego" x="13.79" y="-4.35" angle="88.53" type="tEgo" speed="13.89" pos="13.89" lane="beg_0" slope="0.00"/>
    </timestep>
    <timestep time="1.20">
        <vehicle id="B" x="16.54" y="-1.33" angle="89.41" type="tB" speed="13.89" pos="16.67" lane="beg_1" slope="0.00"/>
        <vehicle id="ego" x="16.54" y="-4.15" angle="88.53" type="tEgo" speed="13.89" pos="16.67" lane="beg_0" slope="0.00"/>
    </timestep>
    <timestep time="1.40">
        <vehicle id="B" x="19.30" y="-1.25" angle="89.41" type="tB" speed="13.89" pos="19.45" lane="beg_1" slope="0.00"/>
        <vehicle id="ego" x="19.30" y="-3.99" angle="88.82" type="tEgo" speed="13.89" pos="19.45" lane="beg_0" slope="0.00"/>
    </timestep>
    <timestep time="1.60">
        <vehicle id="B" x="22.06" y="-1.21" angle="89.71" type="tB" speed="13.89" pos="22.22" lane="beg_1" slope="0.00"/>
        <vehicle id="ego" x="22.06" y="-3.83" angle="88.82" type="tEgo" speed="13.89" pos="22.22" lane="beg_0" slope="0.00"/>
    </timestep>
    <timestep time="1.80">
        <vehicle id="B" x="24.81" y="-1.21" angle="90.00" type="tB" speed="13.89" pos="25.00" lane="beg_1" slope="0.00"/>
        <vehicle id="ego" x="24.81" y="-3.71" angle="89.12" type="tEgo" speed="13.89" pos="25.00" lane="beg_0" slope="0.00"/>
    </timestep>
    <timestep time="2.00">
        <vehicle id="B" x="27.57" y="-1.20" angle="89.93" type="tB" speed="13.89" pos="27.78" lane="beg_1" slope="0.00"/>
        <vehicle id="ego" x="27.57" y="-3.59" angle="89.12" type="tEgo" speed="13.89" pos="27.78" lane="beg_0" slope="0.00"/>
    </timestep>
    <timestep time="2.20">
        <vehicle id="B" x="30.33" y="-1.20" angle="90.00" type="tB" speed="13.89" pos="30.56" lane="beg_1" slope="0.00"/>
        <vehicle id="ego" x="30.33" y="-3.51" angle="89.41" type="tEgo" speed="13.89" pos="30.56" lane="beg_0" slope="0.00"/>
    </timestep>
    <timestep time="2.40">
        <vehicle id="B" x="33.09" y="-1.20" angle="90.00" type="tB" speed="13.89" pos="33.34" lane="beg_1" slope="0.00"/>
        <vehicle id="ego" x="33.09" y="-3.47" angle="89.71" type="tEgo" speed="13.89" pos="33.34" lane="beg_0" slope="0.00"/>
    </timestep>
    <timestep time="2.60">
        <vehicle id="B" x="35.84" y="-1.20" angle="90.00" type="tB" speed="13.89" pos="36.11" lane="beg_1" slope="0.00"/>
        <vehicle id="ego" x="35.84" y="-3.47" angle="90.00" type="tEgo" speed="13.89" pos="36.11" lane="beg_0" slope="0.00"/>
    </timestep>
    <timestep time="2.80">
        <vehicle id="B" x="38.60" y="-1.20" angle="90.00" type="tB" speed="13.89" pos="38.89" lane="beg_1" slope="0.00"/>
        <vehicle id="ego" x="38.60" y="-3.45" angle="89.86" type="tEgo" speed="13.89" pos="38.89" lane="beg_0" slope="0.00"/>
    </timestep>
    <timestep time="3.00">
        <vehicle id="B" x="41.36" y="-1.20" angle="90.00" type="tB" speed="13.89" pos="41.67" lane="beg_1" slope="0.00"/>
        <vehicle id="ego" x="41.36" y="-3.45" angle="90.00" type="tEgo" speed="13.89" pos="41.67" lane="beg_0" slope="0.00"/>
    </timestep>
    <timestep time="3.20">
        <vehicle id="B" x="43.94" y="-1.20" angle="90.00" type="tB" speed="12.99" pos="44.27" lane="beg_1" slope="0.00"/>
        <vehicle id="ego" x="44.04" y="-3.45" angle="90.00" type="tEgo" speed="13.50" pos="44.37" lane="beg_0" slope="0.00"/>
    </timestep>
    <timestep time="3.40">
        <vehicle id="B" x="46.34" y="-1.20" angle="90.00" type="tB" speed="12.09" pos="46.69" lane="beg_1" slope="0.00"/>
        <vehicle id="ego" x="46.79" y="-3.45" angle="90.00" type="tEgo" speed="13.89" pos="47.15" lane="beg_0" slope="0.00"/>
    </timestep>
    <timestep time="3.60">
        <vehicle id="B" x="48.56" y="-1.20" angle="90.00" type="tB" speed="11.19" pos="48.92" lane="beg_1" slope="0.00"/>
        <vehicle id="ego" x="49.55" y="-3.45" angle="90.00" type="tEgo" speed="13.89" pos="49.93" lane="beg_0" slope="0.00"/>
    </timestep>
    <timestep time="3.80">
        <vehicle id="B" x="50.60" y="-1.20" angle="90.00" type="tB" speed="10.29" pos="50.98" lane="beg_1" slope="0.00"/>
        <vehicle id="ego" x="52.31" y="-3.45" angle="90.00" type="tEgo" speed="13.89" pos="52.70" lane="beg_0" slope="0.00"/>
    </timestep>
    <timestep time="4.00">
        <vehicle id="B" x="52.75" y="-1.20" angle="90.00" type="tB" speed="10.81" pos="53.14" lane="beg_1" slope="0.00"/>
        <vehicle id="ego" x="55.07" y="-3.45" angle="90.00" type="tEgo" speed="13.89" pos="55.48" lane="beg_0" slope="0.00"/>
    </timestep>
    <timestep time="4.20">
        <vehicle id="B" x="54.95" y="-1.20" angle="90.00" type="tB" speed="11.11" pos="55.37" lane="beg_1" slope="0.00"/>
        <vehicle id="ego" x="57.82" y="-3.45" angle="90.00" type="tEgo" speed="13.89" pos="58.26" lane="beg_0" slope="0.00"/>
    </timestep>
    <timestep time="4.40">
        <vehicle id="B" x="57.16" y="-1.20" angle="90.00" type="tB" speed="11.11" pos="57.59" lane="beg_1" slope="0.00"/>
        <vehicle id="ego" x="60.58" y="-3.45" angle="90.00" type="tEgo" speed="13.89" pos="61.04" lane="beg_0" slope="0.00"/>
    </timestep>
    <timestep time="4.60">
        <vehicle id="B" x="59.36" y="-1.20" angle="90.00" type="tB" speed="11.11" pos="59.81" lane="beg_1" slope="0.00"/>
        <vehicle id="ego" x="63.34" y="-3.45" angle="90.00" type="tEgo" speed="13.89" pos="63.82" lane="beg_0" slope="0.00"/>
    </timestep>
    <timestep time="4.80">
        <vehicle id="B" x="61.57" y="-1.20" angle="90.00" type="tB" speed="11.11" pos="62.03" lane="beg_1" slope="0.00"/>
        <vehicle id="ego" x="66.09" y="-3.45" angle="90.00" type="tEgo" speed="13.89" pos="66.59" lane="beg_0" slope="0.00"/>
    </timestep>
    <timestep time="5.00">
        <vehicle id="B" x="63.77" y="-1.20" angle="90.00" type="tB" speed="11.11" pos="64.26" lane="beg_1" slope="0.00"/>
        <vehicle id="ego" x="68.85" y="-3.45" angle="90.00" type="tEgo" speed="13.89" pos="69.37" lane="beg_0" slope="0.00"/>
    </timestep>
    <timestep time="5.20">
        <vehicle id="B" x="65.98" y="-1.20" angle="90.00" type="tB" speed="11.11" pos="66.48" lane="beg_1" slope="0.00"/>
        <vehicle id="ego" x="71.61" y="-3.45" angle="90.00" type="tEgo" speed="13.89" pos="72.15" lane="beg_0" slope="0.00"/>
    </timestep>
    <timestep time="5.40">
        <vehicle id="B" x="68.19" y="-1.20" angle="90.00" type="tB" speed="11.11" pos="68.70" lane="beg_1" slope="0.00"/>
        <vehicle id="ego" x="74.37" y="-3.45" angle="90.00" type="tEgo" speed="13.89" pos="74.93" lane="beg_0" slope="0.00"/>
    </timestep>
    <timestep time="5.60">
        <vehicle id="B" x="70.39" y="-1.20" angle="90.00" type="tB" speed="11.11" pos="70.92" lane="beg_1" slope="0.00"/>
        <vehicle id="ego" x="77.12" y="-3.45" angle="90.00" type="tEgo" speed="13.89" pos="77.71" lane="beg_0" slope="0.00"/>
    </timestep>
    <timestep time="5.80">
        <vehicle id="B" x="72.60" y="-1.20" angle="90.00" type="tB" speed="11.11" pos="73.15" lane="beg_1" slope="0.00"/>
        <vehicle id="ego" x="79.88" y="-3.45" angle="90.00" type="tEgo" speed="13.89" pos="80.48" lane="beg_0" slope="0.00"/>
    </timestep>
    <timestep time="6.00">
        <vehicle id="B" x="74.80" y="-1.20" angle="90.00" type="tB" speed="11.11" pos="75.37" lane="beg_1" slope="0.00"/>
        <vehicle id="ego" x="82.64" y="-3.45" angle="90.00" type="tEgo" speed="13.89" pos="83.26" lane="beg_0" slope="0.00"/>
    </timestep>
    <timestep time="6.20">
        <vehicle id="B" x="77.01" y="-1.20" angle="90.00" type="tB" speed="11.11" pos="77.59" lane="beg_1" slope="0.00"/>
        <vehicle id="ego" x="85.39" y="-3.45" angle="90.00" type="tEgo" speed="13.89" pos="86.04" lane="beg_0" slope="0.00"/>
    </timestep>
    <timestep time="6.40">
        <vehicle id="B" x="79.21" y="-1.20" angle="90.00" type="tB" speed="11.11" pos="79.81" lane="beg_1" slope="0.00"/>
        <vehicle id="ego" x="88.15" y="-3.45" angle="90.00" type="tEgo" speed="13.89" pos="88.82" lane="beg_0" slope="0.00"/>
    </timestep>
    <timestep time="6.60">
        <vehicle id="B" x="81.42" y="-1.20" angle="90.00" type="tB" speed="11.11" pos="82.04" lane="beg_1" slope="0.00"/>
        <vehicle id="ego" x="90.91" y="-3.45" angle="90.00" type="tEgo" speed="13.89" pos="91.60" lane="beg_0" slope="0.00"/>
    </timestep>
    <timestep time="6.80">
        <vehicle id="B" x="83.63" y="-1.20" angle="90.00" type="tB" speed="11.11" pos="84.26" lane="beg_1" slope="0.00"/>
        <vehicle id="ego" x="93.67" y="-3.45" angle="90.00" type="tEgo" speed="13.89" pos="94.37" lane="beg_0" slope="0.00"/>
    </timestep>
    <timestep time="7.00">
        <vehicle id="B" x="85.83" y="-1.20" angle="90.00" type="tB" speed="11.11" pos="86.48" lane="beg_1" slope="0.00"/>
        <vehicle id="ego" x="96.42" y="-3.45" angle="90.00" type="tEgo" speed="13.89" pos="97.15" lane="beg_0" slope="0.00"/>
    </timestep>
    <timestep time="7.20">
        <vehicle id="B" x="88.04" y="-1.20" angle="90.00" type="tB" speed="11.11" pos="88.70" lane="beg_1" slope="0.00"/>
        <vehicle id="ego" x="99.18" y="-3.41" angle="89.71" type="tEgo" speed="13.89" pos="99.93" lane="beg_0" slope="0.00"/>
    </timestep>
    <timestep time="7.40">
        <vehicle id="B" x="90.25" y="-1.20" angle="90.00" type="tB" speed="11.13" pos="90.93" lane="beg_1" slope="0.00"/>
        <vehicle id="ego" x="101.94" y="-3.23" angle="89.41" type="tEgo" speed="13.89" pos="102.71" lane="beg_1" slope="0.00"/>
    </timestep>
    <timestep time="7.60">
        <vehicle id="B" x="92.49" y="-1.20" angle="90.00" type="tB" speed="11.29" pos="93.19" lane="beg_1" slope="0.00"/>
        <vehicle id="ego" x="104.70" y="-3.11" angle="89.12" type="tEgo" speed="13.89" pos="105.49" lane="beg_1" slope="0.00"/>
    </timestep>
    <timestep time="7.80">
        <vehicle id="B" x="94.76" y="-1.20" angle="90.00" type="tB" speed="11.44" pos="95.48" lane="beg_1" slope="0.00"/>
        <vehicle id="ego" x="107.45" y="-2.95" angle="88.82" type="tEgo" speed="13.89" pos="108.26" lane="beg_1" slope="0.00"/>
    </timestep>
    <timestep time="8.00">
        <vehicle id="B" x="97.06" y="-1.20" angle="90.00" type="tB" speed="11.59" pos="97.79" lane="beg_1" slope="0.00"/>
        <vehicle id="ego" x="110.21" y="-2.75" angle="88.53" type="tEgo" speed="13.89" pos="111.04" lane="beg_1" slope="0.00"/>
    </timestep>
    <timestep time="8.20">
        <vehicle id="B" x="99.39" y="-1.20" angle="90.00" type="tB" speed="11.72" pos="100.14" lane="beg_1" slope="0.00"/>
        <vehicle id="ego" x="112.97" y="-2.55" angle="88.53" type="tEgo" speed="13.89" pos="113.82" lane="beg_1" slope="0.00"/>
    </timestep>
    <timestep time="8.40">
        <vehicle id="B" x="101.74" y="-1.20" angle="90.00" type="tB" speed="11.84" pos="102.51" lane="beg_1" slope="0.00"/>
        <vehicle id="ego" x="115.72" y="-2.35" angle="88.53" type="tEgo" speed="13.89" pos="116.60" lane="beg_1" slope="0.00"/>
    </timestep>
    <timestep time="8.60">
        <vehicle id="B" x="104.11" y="-1.20" angle="90.00" type="tB" speed="11.96" pos="104.90" lane="beg_1" slope="0.00"/>
        <vehicle id="ego" x="118.48" y="-2.15" angle="88.53" type="tEgo" speed="13.89" pos="119.38" lane="beg_1" slope="0.00"/>
    </timestep>
    <timestep time="8.80">
        <vehicle id="B" x="106.50" y="-1.20" angle="90.00" type="tB" speed="12.06" pos="107.31" lane="beg_1" slope="0.00"/>
        <vehicle id="ego" x="121.24" y="-1.99" angle="88.82" type="tEgo" speed="13.89" pos="122.15" lane="beg_1" slope="0.00"/>
    </timestep>
    <timestep time="9.00">
        <vehicle id="B" x="108.92" y="-1.24" angle="90.31" type="tB" speed="12.16" pos="109.74" lane="beg_1" slope="0.00"/>
        <vehicle id="ego" x="124.00" y="-1.87" angle="89.12" type="tEgo" speed="13.89" pos="124.93" lane="beg_1" slope="0.00"/>
    </timestep>
    <timestep time="9.20">
        <vehicle id="B" x="111.35" y="-1.32" angle="90.62" type="tB" speed="12.26" pos="112.19" lane="beg_1" slope="0.00"/>
        <vehicle id="ego" x="126.75" y="-1.79" angle="89.41" type="tEgo" speed="13.89" pos="127.71" lane="beg_1" slope="0.00"/>
    </timestep>
    <timestep time="9.40">
        <vehicle id="B" x="113.81" y="-1.32" angle="90.00" type="tB" speed="12.35" pos="114.67" lane="beg_1" slope="0.00"/>
        <vehicle id="ego" x="129.51" y="-1.71" angle="89.41" type="tEgo" speed="13.89" pos="130.49" lane="beg_1" slope="0.00"/>
    </timestep>
    <timestep time="9.60">
        <vehicle id="B" x="116.27" y="-1.32" angle="90.00" type="tB" speed="12.44" pos="117.15" lane="beg_1" slope="0.00"/>
        <vehicle id="ego" x="132.27" y="-1.67" angle="89.71" type="tEgo" speed="13.89" pos="133.27" lane="beg_1" slope="0.00"/>
    </timestep>
    <timestep time="9.80">
        <vehicle id="B" x="118.76" y="-1.36" angle="90.31" type="tB" speed="12.52" pos="119.66" lane="beg_1" slope="0.00"/>
        <vehicle id="ego" x="135.02" y="-1.67" angle="90.00" type="tEgo" speed="13.89" pos="136.04" lane="beg_1" slope="0.00"/>
    </timestep>
    <timestep time="10.00">
        <vehicle id="B" x="121.26" y="-1.44" angle="90.61" type="tB" speed="12.59" pos="122.17" lane="beg_1" slope="0.00"/>
        <vehicle id="ego" x="137.78" y="-1.65" angle="89.84" type="tEgo" speed="13.89" pos="138.82" lane="beg_1" slope="0.00"/>
    </timestep>
    <timestep time="10.20">
        <vehicle id="B" x="123.77" y="-1.52" angle="90.61" type="tB" speed="12.66" pos="124.71" lane="beg_1" slope="0.00"/>
        <vehicle id="ego" x="140.54" y="-1.65" angle="90.00" type="tEgo" speed="13.89" pos="141.60" lane="beg_1" slope="0.00"/>
    </timestep>
    <timestep time="10.40">
        <vehicle id="B" x="126.30" y="-1.60" angle="90.61" type="tB" speed="12.73" pos="127.25" lane="beg_1" slope="0.00"/>
        <vehicle id="ego" x="143.30" y="-1.65" angle="90.00" type="tEgo" speed="13.89" pos="144.38" lane="beg_1" slope="0.00"/>
    </timestep>
    <timestep time="10.60">
        <vehicle id="B" x="128.84" y="-1.64" angle="90.30" type="tB" speed="12.79" pos="129.81" lane="beg_1" slope="0.00"/>
        <vehicle id="ego" x="146.05" y="-1.65" angle="90.00" type="tEgo" speed="13.89" pos="147.16" lane="beg_1" slope="0.00"/>
    </timestep>
    <timestep time="10.80">
        <vehicle id="B" x="131.39" y="-1.64" angle="90.00" type="tB" speed="12.85" pos="132.38" lane="beg_1" slope="0.00"/>
        <vehicle id="ego" x="148.81" y="-1.65" angle="90.00" type="tEgo" speed="13.89" pos="149.93" lane="beg_1" slope="0.00"/>
    </timestep>
    <timestep time="11.00">
        <vehicle id="B" x="133.95" y="-1.65" angle="90.07" type="tB" speed="12.90" pos="134.96" lane="beg_1" slope="0.00"/>
        <vehicle id="ego" x="151.57" y="-1.65" angle="90.00" type="tEgo" speed="13.89" pos="152.71" lane="beg_1" slope="0.00"/>
    </timestep>
    <timestep time="11.20">
        <vehicle id="B" x="136.52" y="-1.65" angle="90.00" type="tB" speed="12.95" pos="137.55" lane="beg_1" slope="0.00"/>
        <vehicle id="ego" x="154.32" y="-1.65" angle="90.00" type="tEgo" speed="13.89" pos="155.49" lane="beg_1" slope="0.00"/>
    </timestep>
    <timestep time="11.40">
        <vehicle id="B" x="139.10" y="-1.65" angle="90.00" type="tB" speed="13.00" pos="140.15" lane="beg_1" slope="0.00"/>
        <vehicle id="ego" x="157.08" y="-1.65" angle="90.00" type="tEgo" speed="13.89" pos="158.27" lane="beg_1" slope="0.00"/>
    </timestep>
    <timestep time="11.60">
        <vehicle id="B" x="141.69" y="-1.65" angle="90.00" type="tB" speed="13.05" pos="142.76" lane="beg_1" slope="0.00"/>
        <vehicle id="ego" x="159.84" y="-1.65" angle="90.00" type="tEgo" speed="13.89" pos="161.05" lane="beg_1" slope="0.00"/>
    </timestep>
    <timestep time="11.80">
        <vehicle id="B" x="144.29" y="-1.65" angle="90.00" type="tB" speed="13.09" pos="145.38" lane="beg_1" slope="0.00"/>
        <vehicle id="ego" x="162.60" y="-1.65" angle="90.00" type="tEgo" speed="13.89" pos="163.82" lane="beg_1" slope="0.00"/>
    </timestep>
    <timestep time="12.00">
        <vehicle id="B" x="146.90" y="-1.65" angle="90.00" type="tB" speed="13.14" pos="148.01" lane="beg_1" slope="0.00"/>
        <vehicle id="ego" x="165.35" y="-1.65" angle="90.00" type="tEgo" speed="13.89" pos="166.60" lane="beg_1" slope="0.00"/>
    </timestep>
    <timestep time="12.20">
        <vehicle id="B" x="149.51" y="-1.65" angle="90.00" type="tB" speed="13.18" pos="150.64" lane="beg_1" slope="0.00"/>
        <vehicle id="ego" x="168.11" y="-1.65" angle="90.00" type="tEgo" speed="13.89" pos="169.38" lane="beg_1" slope="0.00"/>
    </timestep>
    <timestep time="12.40">
        <vehicle id="B" x="152.13" y="-1.65" angle="90.00" type="tB" speed="13.21" pos="153.28" lane="beg_1" slope="0.00"/>
        <vehicle id="ego" x="170.87" y="-1.65" angle="90.00" type="tEgo" speed="13.89" pos="172.16" lane="beg_1" slope="0.00"/>
    </timestep>
    <timestep time="12.60">
        <vehicle id="B" x="154.76" y="-1.65" angle="90.00" type="tB" speed="13.25" pos="155.93" lane="beg_1" slope="0.00"/>
        <vehicle id="ego" x="173.62" y="-1.65" angle="90.00" type="tEgo" speed="13.89" pos="174.94" lane="beg_1" slope="0.00"/>
    </timestep>
    <timestep time="12.80">
        <vehicle id="B" x="157.40" y="-1.65" angle="90.00" type="tB" speed="13.28" pos="158.59" lane="beg_1" slope="0.00"/>
        <vehicle id="ego" x="176.38" y="-1.65" angle="90.00" type="tEgo" speed="13.89" pos="177.71" lane="beg_1" slope="0.00"/>
    </timestep>
    <timestep time="13.00">
        <vehicle id="B" x="160.04" y="-1.65" angle="90.00" type="tB" speed="13.31" pos="161.25" lane="beg_1" slope="0.00"/>
        <vehicle id="ego" x="179.14" y="-1.65" angle="90.00" type="tEgo" speed="13.89" pos="180.49" lane="beg_1" slope="0.00"/>
    </timestep>
    <timestep time="13.20">
        <vehicle id="B" x="162.69" y="-1.65" angle="90.00" type="tB" speed="13.34" pos="163.92" lane="beg_1" slope="0.00"/>
        <vehicle id="ego" x="181.90" y="-1.65" angle="90.00" type="tEgo" speed="13.89" pos="183.27" lane="beg_1" slope="0.00"/>
    </timestep>
    <timestep time="13.40">
        <vehicle id="B" x="165.35" y="-1.65" angle="90.00" type="tB" speed="13.37" pos="166.60" lane="beg_1" slope="0.00"/>
        <vehicle id="ego" x="184.65" y="-1.65" angle="90.00" type="tEgo" speed="13.89" pos="186.05" lane="beg_1" slope="0.00"/>
    </timestep>
    <timestep time="13.60">
        <vehicle id="B" x="168.01" y="-1.65" angle="90.00" type="tB" speed="13.40" pos="169.28" lane="beg_1" slope="0.00"/>
        <vehicle id="ego" x="187.41" y="-1.65" angle="90.00" type="tEgo" speed="13.89" pos="188.83" lane="beg_1" slope="0.00"/>
    </timestep>
    <timestep time="13.80">
        <vehicle id="B" x="170.67" y="-1.65" angle="90.00" type="tB" speed="13.43" pos="171.96" lane="beg_1" slope="0.00"/>
        <vehicle id="ego" x="190.17" y="-1.65" angle="90.00" type="tEgo" speed="13.89" pos="191.60" lane="beg_1" slope="0.00"/>
    </timestep>
    <timestep time="14.00">
        <vehicle id="B" x="173.34" y="-1.65" angle="90.00" type="tB" speed="13.45" pos="174.65" lane="beg_1" slope="0.00"/>
        <vehicle id="ego" x="192.92" y="-1.65" angle="90.00" type="tEgo" speed="13.89" pos="194.38" lane="beg_1" slope="0.00"/>
    </timestep>
    <timestep time="14.20">
        <vehicle id="B" x="176.02" y="-1.65" angle="90.00" type="tB" speed="13.47" pos="177.35" lane="beg_1" slope="0.00"/>
        <vehicle id="ego" x="195.68" y="-1.65" angle="90.00" type="tEgo" speed="13.89" pos="197.16" lane="beg_1" slope="0.00"/>
    </timestep>
    <timestep time="14.40">
        <vehicle id="B" x="178.69" y="-1.65" angle="90.00" type="tB" speed="13.50" pos="180.05" lane="beg_1" slope="0.00"/>
        <vehicle id="ego" x="198.44" y="-1.65" angle="90.00" type="tEgo" speed="13.89" pos="199.94" lane="beg_1" slope="0.00"/>
    </timestep>
    <timestep time="14.60">
        <vehicle id="B" x="181.38" y="-1.65" angle="90.00" type="tB" speed="13.52" pos="182.75" lane="beg_1" slope="0.00"/>
        <vehicle id="ego" x="204.18" y="-1.65" angle="90.00" type="tEgo" speed="13.89" pos="2.72" lane="end_0" slope="0.00"/>
    </timestep>
    <timestep time="14.80">
        <vehicle id="B" x="184.06" y="-1.65" angle="90.00" type="tB" speed="13.53" pos="185.46" lane="beg_1" slope="0.00"/>
        <vehicle id="ego" x="206.91" y="-1.65" angle="90.00" type="tEgo" speed="13.89" pos="5.49" lane="end_0" slope="0.00"/>
    </timestep>
    <timestep time="15.00">
        <vehicle id="B" x="186.75" y="-1.65" angle="90.00" type="tB" speed="13.55" pos="188.17" lane="beg_1" slope="0.00"/>
        <vehicle id="ego" x="209.65" y="-1.65" angle="90.00" type="tEgo" speed="13.89" pos="8.27" lane="end_0" slope="0.00"/>
    </timestep>
    <timestep time="15.20">
        <vehicle id="B" x="189.45" y="-1.65" angle="90.00" type="tB" speed="13.57" pos="190.88" lane="beg_1" slope="0.00"/>
        <vehicle id="ego" x="212.38" y="-1.65" angle="90.00" type="tEgo" speed="13.89" pos="11.05" lane="end_0" slope="0.00"/>
    </timestep>
    <timestep time="15.40">
        <vehicle id="B" x="192.14" y="-1.65" angle="90.00" type="tB" speed="13.58" pos="193.60" lane="beg_1" slope="0.00"/>
        <vehicle id="ego" x="215.12" y="-1.65" angle="90.00" type="tEgo" speed="13.89" pos="13.83" lane="end_0" slope="0.00"/>
    </timestep>
    <timestep time="15.60">
        <vehicle id="B" x="194.84" y="-1.65" angle="90.00" type="tB" speed="13.60" pos="196.32" lane="beg_1" slope="0.00"/>
        <vehicle id="ego" x="217.86" y="-1.65" angle="90.00" type="tEgo" speed="13.89" pos="16.61" lane="end_0" slope="0.00"/>
    </timestep>
    <timestep time="15.80">
        <vehicle id="B" x="197.55" y="-1.65" angle="90.00" type="tB" speed="13.61" pos="199.04" lane="beg_1" slope="0.00"/>
        <vehicle id="ego" x="220.59" y="-1.65" angle="90.00" type="tEgo" speed="13.89" pos="19.38" lane="end_0" slope="0.00"/>
    </timestep>
    <timestep time="16.00">
        <vehicle id="B" x="203.24" y="-1.65" angle="90.00" type="tB" speed="13.63" pos="1.77" lane="end_0" slope="0.00"/>
        <vehicle id="ego" x="223.33" y="-1.65" angle="90.00" type="tEgo" speed="13.89" pos="22.16" lane="end_0" slope="0.00"/>
    </timestep>
    <timestep time="16.20">
        <vehicle id="B" x="205.93" y="-1.65" angle="90.00" type="tB" speed="13.64" pos="4.49" lane="end_0" slope="0.00"/>
        <vehicle id="ego" x="226.07" y="-1.65" angle="90.00" type="tEgo" speed="13.89" pos="24.94" lane="end_0" slope="0.00"/>
    </timestep>
    <timestep time="16.40">
        <vehicle id="B" x="208.62" y="-1.65" angle="90.00" type="tB" speed="13.65" pos="7.22" lane="end_0" slope="0.00"/>
        <vehicle id="ego" x="228.80" y="-1.65" angle="90.00" type="tEgo" speed="13.89" pos="27.72" lane="end_0" slope="0.00"/>
    </timestep>
    <timestep time="16.60">
        <vehicle id="B" x="211.31" y="-1.65" angle="90.00" type="tB" speed="13.67" pos="9.96" lane="end_0" slope="0.00"/>
        <vehicle id="ego" x="231.54" y="-1.65" angle="90.00" type="tEgo" speed="13.89" pos="30.50" lane="end_0" slope="0.00"/>
    </timestep>
    <timestep time="16.80">
        <vehicle id="B" x="214.00" y="-1.65" angle="90.00" type="tB" speed="13.68" pos="12.69" lane="end_0" slope="0.00"/>
        <vehicle id="ego" x="234.28" y="-1.65" angle="90.00" type="tEgo" speed="13.89" pos="33.27" lane="end_0" slope="0.00"/>
    </timestep>
    <timestep time="17.00">
        <vehicle id="B" x="216.70" y="-1.65" angle="90.00" type="tB" speed="13.69" pos="15.43" lane="end_0" slope="0.00"/>
        <vehicle id="ego" x="237.01" y="-1.65" angle="90.00" type="tEgo" speed="13.89" pos="36.05" lane="end_0" slope="0.00"/>
    </timestep>
    <timestep time="17.20">
        <vehicle id="B" x="219.40" y="-1.65" angle="90.00" type="tB" speed="13.70" pos="18.17" lane="end_0" slope="0.00"/>
        <vehicle id="ego" x="239.75" y="-1.65" angle="90.00" type="tEgo" speed="13.89" pos="38.83" lane="end_0" slope="0.00"/>
    </timestep>
    <timestep time="17.40">
        <vehicle id="B" x="222.10" y="-1.65" angle="90.00" type="tB" speed="13.71" pos="20.91" lane="end_0" slope="0.00"/>
        <vehicle id="ego" x="242.48" y="-1.65" angle="90.00" type="tEgo" speed="13.89" pos="41.61" lane="end_0" slope="0.00"/>
    </timestep>
    <timestep time="17.60">
        <vehicle id="B" x="224.80" y="-1.65" angle="90.00" type="tB" speed="13.72" pos="23.65" lane="end_0" slope="0.00"/>
        <vehicle id="ego" x="245.22" y="-1.65" angle="90.00" type="tEgo" speed="13.89" pos="44.39" lane="end_0" slope="0.00"/>
    </timestep>
    <timestep time="17.80">
        <vehicle id="B" x="227.50" y="-1.65" angle="90.00" type="tB" speed="13.73" pos="26.40" lane="end_0" slope="0.00"/>
        <vehicle id="ego" x="247.96" y="-1.65" angle="90.00" type="tEgo" speed="13.89" pos="47.16" lane="end_0" slope="0.00"/>
    </timestep>
    <timestep time="18.00">
        <vehicle id="B" x="230.21" y="-1.65" angle="90.00" type="tB" speed="13.73" pos="29.15" lane="end_0" slope="0.00"/>
        <vehicle id="ego" x="250.69" y="-1.65" angle="90.00" type="tEgo" speed="13.89" pos="49.94" lane="end_0" slope="0.00"/>
    </timestep>
    <timestep time="18.20">
        <vehicle id="B" x="232.92" y="-1.65" angle="90.00" type="tB" speed="13.74" pos="31.89" lane="end_0" slope="0.00"/>
        <vehicle id="ego" x="253.43" y="-1.65" angle="90.00" type="tEgo" speed="13.89" pos="52.72" lane="end_0" slope="0.00"/>
    </timestep>
    <timestep time="18.40">
        <vehicle id="B" x="235.62" y="-1.65" angle="90.00" type="tB" speed="13.75" pos="34.64" lane="end_0" slope="0.00"/>
        <vehicle id="ego" x="256.17" y="-1.65" angle="90.00" type="tEgo" speed="13.89" pos="55.50" lane="end_0" slope="0.00"/>
    </timestep>
    <timestep time="18.60">
        <vehicle id="B" x="238.33" y="-1.65" angle="90.00" type="tB" speed="13.76" pos="37.40" lane="end_0" slope="0.00"/>
        <vehicle id="ego" x="258.90" y="-1.65" angle="90.00" type="tEgo" speed="13.89" pos="58.28" lane="end_0" slope="0.00"/>
    </timestep>
    <timestep time="18.80">
        <vehicle id="B" x="241.05" y="-1.65" angle="90.00" type="tB" speed="13.76" pos="40.15" lane="end_0" slope="0.00"/>
        <vehicle id="ego" x="261.64" y="-1.65" angle="90.00" type="tEgo" speed="13.89" pos="61.05" lane="end_0" slope="0.00"/>
    </timestep>
    <timestep time="19.00">
        <vehicle id="B" x="243.76" y="-1.65" angle="90.00" type="tB" speed="13.77" pos="42.90" lane="end_0" slope="0.00"/>
        <vehicle id="ego" x="264.37" y="-1.65" angle="90.00" type="tEgo" speed="13.89" pos="63.83" lane="end_0" slope="0.00"/>
    </timestep>
    <timestep time="19.20">
        <vehicle id="B" x="246.47" y="-1.65" angle="90.00" type="tB" speed="13.77" pos="45.66" lane="end_0" slope="0.00"/>
        <vehicle id="ego" x="267.11" y="-1.65" angle="90.00" type="tEgo" speed="13.89" pos="66.61" lane="end_0" slope="0.00"/>
    </timestep>
    <timestep time="19.40">
        <vehicle id="B" x="249.19" y="-1.65" angle="90.00" type="tB" speed="13.78" pos="48.41" lane="end_0" slope="0.00"/>
        <vehicle id="ego" x="269.85" y="-1.65" angle="90.00" type="tEgo" speed="13.89" pos="69.39" lane="end_0" slope="0.00"/>
    </timestep>
    <timestep time="19.60">
        <vehicle id="B" x="251.90" y="-1.65" angle="90.00" type="tB" speed="13.79" pos="51.17" lane="end_0" slope="0.00"/>