<?xml version="1.0" encoding="UTF-8"?>

<!-- generated on Fri Nov 10 08:20:34 2017 by SUMO Version v0_31_0-1053-gb13f456
<?xml version="1.0" encoding="UTF-8"?>

<configuration xmlns:xsi="http://www.w3.org/2001/XMLSchema-instance" xsi:noNamespaceSchemaLocation="http://sumo.dlr.de/xsd/sumoConfiguration.xsd">

    <input>
        <net-file value="net.net.xml"/>
        <route-files value="input_routes.rou.xml"/>
    </input>

    <output>
        <tripinfo-output value="tripinfos.xml"/>
    </output>

    <time>
        <end value="300"/>
    </time>

    <processing>
        <pedestrian.model value="striping"/>
        <pedestrian.striping.dawdling value="0"/>
        <pedestrian.striping.jamtime value="-1"/>
    </processing>

    <report>
        <xml-validation value="never"/>
        <no-step-log value="true"/>
    </report>

</configuration>
-->

<tripinfos xmlns:xsi="http://www.w3.org/2001/XMLSchema-instance" xsi:noNamespaceSchemaLocation="http://sumo.dlr.de/xsd/tripinfo_file.xsd">
    <personinfo id="ped6" depart="5.00">
        <walk depart="5.00" departPos="24.75" arrival="215.00" arrivalPos="1.83" duration="210.00" routeLength="19.03" timeLoss="196.30" maxSpeed="1.39"/>
    </personinfo>
    <personinfo id="ped45" depart="40.00">
        <walk depart="40.00" departPos="40.13" arrival="215.00" arrivalPos="1.25" duration="175.00" routeLength="3.07" timeLoss="172.79" maxSpeed="1.39"/>
    </personinfo>
    <personinfo id="ped42" depart="35.00">
        <walk depart="35.00" departPos="32.07" arrival="219.00" arrivalPos="6.67" duration="184.00" routeLength="16.55" timeLoss="172.08" maxSpeed="1.39"/>
    </personinfo>
    <personinfo id="ped22" depart="17.00">
        <walk depart="17.00" departPos="23.76" arrival="222.00" arrivalPos="11.10" duration="205.00" routeLength="29.29" timeLoss="183.91" maxSpeed="1.39"/>
    </personinfo>
    <personinfo id="ped8" depart="7.00">
        <walk depart="7.00" departPos="31.18" arrival="222.00" arrivalPos="10.38" duration="215.00" routeLength="21.15" timeLoss="199.77" maxSpeed="1.39"/>
    </personinfo>
    <personinfo id="ped48" depart="43.00">
        <walk depart="43.00" departPos="5.43" arrival="222.00" arrivalPos="5.26" duration="179.00" routeLength="41.78" timeLoss="148.92" maxSpeed="1.39"/>
    </personinfo>
    <personinfo id="ped80" depart="80.00">
        <walk depart="80.00" departPos="38.93" arrival="222.00" arrivalPos="2.81" duration="142.00" routeLength="5.83" timeLoss="137.81" maxSpeed="1.39"/>
    </personinfo>
    <personinfo id="ped52" depart="48.00">
        <walk depart="48.00" departPos="11.08" arrival="223.00" arrivalPos="9.36" duration="175.00" routeLength="40.23" timeLoss="146.03" maxSpeed="1.39"/>
    </personinfo>
    <personinfo id="ped38" depart="30.00">
        <walk depart="30.00" departPos="1.36" arrival="224.00" arrivalPos="12.66" duration="194.00" routeLength="53.25" timeLoss="155.66" maxSpeed="1.39"/>
    </personinfo>
    <personinfo id="ped37" depart="29.00">
        <walk depart="29.00" departPos="22.83" arrival="226.00" arrivalPos="9.93" duration="197.00" routeLength="29.05" timeLoss="176.09" maxSpeed="1.39"/>
    </personinfo>
    <personinfo id="ped87" depart="89.00">
        <walk depart="89.00" departPos="8.69" arrival="226.00" arrivalPos="7.58" duration="137.00" routeLength="40.84" timeLoss="107.60" maxSpeed="1.39"/>
    </personinfo>
    <personinfo id="ped77" depart="77.00">
        <walk depart="77.00" departPos="6.37" arrival="226.00" arrivalPos="1.17" duration="149.00" routeLength="36.75" timeLoss="122.54" maxSpeed="1.39"/>
    </personinfo>
    <personinfo id="ped94" depart="100.00">
        <walk depart="100.00" departPos="12.17" arrival="227.00" arrivalPos="8.91" duration="127.00" routeLength="38.69" timeLoss="99.14" maxSpeed="1.39"/>
    </personinfo>
    <personinfo id="ped71" depart="69.00">
        <walk depart="69.00" departPos="40.27" arrival="228.00" arrivalPos="12.91" duration="159.00" routeLength="14.59" timeLoss="148.49" maxSpeed="1.39"/>
    </personinfo>
    <personinfo id="ped36" depart="28.00">
        <walk depart="28.00" departPos="37.24" arrival="229.00" arrivalPos="16.64" duration="201.00" routeLength="21.35" timeLoss="185.63" maxSpeed="1.39"/>
    </personinfo>
    <personinfo id="ped93" depart="96.00">
        <walk depart="96.00" departPos="30.28" arrival="229.00" arrivalPos="14.76" duration="133.00" routeLength="26.43" timeLoss="113.97" maxSpeed="1.39"/>
    </personinfo>
    <personinfo id="ped4" depart="2.00">
        <walk depart="2.00" departPos="1.91" arrival="230.00" arrivalPos="20.62" duration="228.00" routeLength="60.66" timeLoss="184.33" maxSpeed="1.39"/>
    </personinfo>
    <personinfo id="ped20" depart="17.00">
        <walk depart="17.00" departPos="19.56" arrival="230.00" arrivalPos="18.97" duration="213.00" routeLength="41.36" timeLoss="183.22" maxSpeed="1.39"/>
    </personinfo>
    <personinfo id="ped47" depart="43.00">
        <walk depart="43.00" departPos="28.74" arrival="231.00" arrivalPos="13.90" duration="188.00" routeLength="27.11" timeLoss="168.48" maxSpeed="1.39"/>
    </personinfo>
    <personinfo id="ped29" depart="24.00">
        <walk depart="24.00" departPos="1.94" arrival="232.00" arrivalPos="21.52" duration="208.00" routeLength="61.53" timeLoss="163.70" maxSpeed="1.39"/>
    </personinfo>
    <personinfo id="ped101" depart="109.00">
        <walk depart="109.00" departPos="25.80" arrival="232.00" arrivalPos="16.35" duration="123.00" routeLength="32.50" timeLoss="99.60" maxSpeed="1.39"/>
    </personinfo>
    <personinfo id="ped104" depart="110.00">
        <walk depart="110.00" departPos="24.54" arrival="233.00" arrivalPos="17.50" duration="123.00" routeLength="34.91" timeLoss="97.86" maxSpeed="1.39"/>
    </personinfo>
    <personinfo id="ped82" depart="81.00">
        <walk depart="81.00" departPos="13.17" arrival="234.00" arrivalPos="14.22" duration="153.00" routeLength="43.01" timeLoss="122.04" maxSpeed="1.39"/>
    </personinfo>
    <personinfo id="ped0" depart="0.00">
        <walk depart="0.00" departPos="37.38" arrival="235.00" arrivalPos="29.89" duration="235.00" routeLength="34.46" timeLoss="210.19" maxSpeed="1.39"/>
    </personinfo>
    <personinfo id="ped53" depart="48.00">
        <walk depart="48.00" departPos="7.05" arrival="235.00" arrivalPos="23.98" duration="187.00" routeLength="58.88" timeLoss="144.60" maxSpeed="1.39"/>
    </personinfo>
    <personinfo id="ped96" depart="102.00">
        <walk depart="102.00" departPos="28.47" arrival="235.00" arrivalPos="17.75" duration="133.00" routeLength="31.23" timeLoss="110.51" maxSpeed="1.39"/>
    </personinfo>
    <personinfo id="ped26" depart="20.00">
        <walk depart="20.00" departPos="13.51" arrival="236.00" arrivalPos="28.68" duration="216.00" routeLength="57.12" timeLoss="174.87" maxSpeed="1.39"/>
    </personinfo>
    <personinfo id="ped13" depart="13.00">
        <walk depart="13.00" departPos="0.25" arrival="236.00" arrivalPos="28.23" duration="223.00" routeLength="69.93" timeLoss="172.65" maxSpeed="1.39"/>
    </personinfo>
    <personinfo id="ped61" depart="58.00">
        <walk depart="58.00" departPos="30.02" arrival="236.00" arrivalPos="25.01" duration="178.00" routeLength="36.94" timeLoss="151.40" maxSpeed="1.39"/>
    </personinfo>
    <personinfo id="ped84" depart="84.00">
        <walk depart="84.00" departPos="3.61" arrival="236.00" arrivalPos="23.79" duration="152.00" routeLength="62.13" timeLoss="107.26" maxSpeed="1.39"/>
    </personinfo>
    <personinfo id="ped113" depart="127.00">
        <walk depart="127.00" departPos="20.67" arrival="236.00" arrivalPos="17.83" duration="109.00" routeLength="39.12" timeLoss="80.84" maxSpeed="1.39"/>
    </personinfo>
    <personinfo id="ped10" depart="10.00">
        <walk depart="10.00" departPos="22.87" arrival="237.00" arrivalPos="31.26" duration="227.00" routeLength="50.33" timeLoss="190.76" maxSpeed="1.39"/>
    </personinfo>
    <personinfo id="ped78" depart="78.00">
        <walk depart="78.00" departPos="11.70" arrival="237.00" arrivalPos="22.94" duration="159.00" routeLength="53.19" timeLoss="120.70" maxSpeed="1.39"/>
    </personinfo>
    <personinfo id="ped60" depart="58.00">
        <walk depart="58.00" departPos="3.73" arrival="238.00" arrivalPos="28.03" duration="180.00" routeLength="66.24" timeLoss="132.31" maxSpeed="1.39"/>
    </personinfo>
    <personinfo id="ped72" depart="70.00">
        <walk depart="70.00" departPos="20.66" arrival="238.00" arrivalPos="24.33" duration="168.00" routeLength="45.62" timeLoss="135.15" maxSpeed="1.39"/>
    </personinfo>
    <personinfo id="ped178" depart="192.00">
        <walk depart="192.00" departPos="41.81" arrival="238.00" arrivalPos="20.45" duration="46.00" routeLength="20.58" timeLoss="31.18" maxSpeed="1.39"/>
    </personinfo>
    <personinfo id="ped33" depart="26.00">
        <walk depart="26.00" departPos="12.88" arrival="239.00" arrivalPos="26.57" duration="213.00" routeLength="55.64" timeLoss="172.94" maxSpeed="1.39"/>
    </personinfo>
    <personinfo id="ped74" depart="71.00">
        <walk depart="71.00" departPos="7.69" arrival="240.00" arrivalPos="26.92" duration="169.00" routeLength="61.17" timeLoss="124.95" maxSpeed="1.39"/>
    </personinfo>
    <personinfo id="ped24" depart="18.00">
        <walk depart="18.00" departPos="2.53" arrival="242.00" arrivalPos="36.73" duration="224.00" routeLength="76.15" timeLoss="169.17" maxSpeed="1.39"/>
    </personinfo>
    <personinfo id="ped54" depart="49.00">
        <walk depart="49.00" departPos="10.13" arrival="242.00" arrivalPos="34.05" duration="193.00" routeLength="65.87" timeLoss="145.57" maxSpeed="1.39"/>
    </personinfo>
    <personinfo id="ped35" depart="28.00">
        <walk depart="28.00" departPos="39.39" arrival="243.00" arrivalPos="34.58" duration="215.00" routeLength="37.14" timeLoss="188.26" maxSpeed="1.39"/>
    </personinfo>
    <personinfo id="ped62" depart="59.00">
        <walk depart="59.00" departPos="29.01" arrival="245.00" arrivalPos="39.23" duration="186.00" routeLength="52.16" timeLoss="148.44" maxSpeed="1.39"/>
    </personinfo>
    <personinfo id="ped51" depart="47.00">
        <walk depart="47.00" departPos="17.26" arrival="247.00" arrivalPos="40.46" duration="200.00" routeLength="65.16" timeLoss="153.09" maxSpeed="1.39"/>
    </personinfo>
    <personinfo id="ped158" depart="170.00">
        <walk depart="170.00" departPos="41.15" arrival="247.00" arrivalPos="37.22" duration="77.00" routeLength="38.02" timeLoss="49.63" maxSpeed="1.39"/>
    </personinfo>
    <personinfo id="ped102" depart="110.00">
        <walk depart="110.00" departPos="21.51" arrival="247.00" arrivalPos="34.63" duration="137.00" routeLength="55.07" timeLoss="97.35" maxSpeed="1.39"/>
    </personinfo>
    <personinfo id="ped81" depart="80.00">
        <walk depart="80.00" departPos="7.51" arrival="250.00" arrivalPos="41.63" duration="170.00" routeLength="76.07" timeLoss="115.23" maxSpeed="1.39"/>
    </personinfo>
    <personinfo id="ped73" depart="70.00">
        <walk depart="70.00" departPos="7.06" arrival="251.00" arrivalPos="40.06" duration="181.00" routeLength="74.94" timeLoss="127.04" maxSpeed="1.39"/>
    </personinfo>
</tripinfos>
