<?xml version="1.0" encoding="UTF-8"?>

<!-- generated on Tue Dec  3 16:34:16 2013 by SUMO sumo Version dev-SVN-r15233
<?xml version="1.0" encoding="UTF-8"?>

<configuration xmlns:xsi="http://www.w3.org/2001/XMLSchema-instance" xsi:noNamespaceSchemaLocation="http://sumo-sim.org/xsd/sumoConfiguration.xsd">

    <input>
        <net-file value="three_split.net.xml"/>
        <additional-files value="input_routes.rou.xml"/>
    </input>

    <output>
        <tripinfo-output value="tripinfos.xml"/>
    </output>

    <time>
        <begin value="0"/>
    </time>

    <report>
        <no-duration-log value="true"/>
        <no-step-log value="true"/>
    </report>

    <emissions>
        <device.hbefa.probability value="1"/>
    </emissions>

</configuration>
-->

<tripinfos>
    <tripinfo id="HDV_3_1" depart="0.00" departLane="beg_0" departPos="0.00" departSpeed="13.89" departDelay="0.00" arrival="252.00" arrivalLane="rend_0" arrivalPos="500.00" arrivalSpeed="13.89" duration="252.00" routeLength="3481.20" waitSteps="0" rerouteNo="0" devices="tripinfo_HDV_3_1 hbefa_HDV_3_1" vType="HDV_3_1" vaporized="">
        <emissions CO_abs="4233.200183" CO2_abs="1819452.480524" HC_abs="1319.914424" PMx_abs="523.386361" NOx_abs="18343.287986" fuel_abs="725.386799"/>
    </tripinfo>
    <tripinfo id="HDV_3_2" depart="20.00" departLane="beg_0" departPos="0.00" departSpeed="13.89" departDelay="0.00" arrival="272.00" arrivalLane="rend_0" arrivalPos="500.00" arrivalSpeed="13.89" duration="252.00" routeLength="3481.20" waitSteps="0" rerouteNo="0" devices="tripinfo_HDV_3_2 hbefa_HDV_3_2" vType="HDV_3_2" vaporized="">
        <emissions CO_abs="8068.519659" CO2_abs="3132240.788642" HC_abs="2574.519086" PMx_abs="1429.629731" NOx_abs="38357.754937" fuel_abs="1248.776503"/>
    </tripinfo>
    <tripinfo id="HDV_3_3" depart="40.00" departLane="beg_0" departPos="0.00" departSpeed="13.89" departDelay="0.00" arrival="292.00" arrivalLane="rend_0" arrivalPos="500.00" arrivalSpeed="13.89" duration="252.00" routeLength="3481.20" waitSteps="0" rerouteNo="0" devices="tripinfo_HDV_3_3 hbefa_HDV_3_3" vType="HDV_3_3" vaporized="">
        <emissions CO_abs="5725.993945" CO2_abs="3193384.261100" HC_abs="1601.235426" PMx_abs="631.032672" NOx_abs="30236.330322" fuel_abs="1261.439589"/>
    </tripinfo>
    <tripinfo id="HDV_6_1" depart="100.00" departLane="beg_0" departPos="0.00" departSpeed="13.89" departDelay="0.00" arrival="352.00" arrivalLane="rend_0" arrivalPos="500.00" arrivalSpeed="13.89" duration="252.00" routeLength="3481.20" waitSteps="0" rerouteNo="0" devices="tripinfo_HDV_6_1 hbefa_HDV_6_1" vType="HDV_6_1" vaporized="">
        <emissions CO_abs="4025.117566" CO2_abs="1751955.720180" HC_abs="1208.285450" PMx_abs="448.971403" NOx_abs="17577.463667" fuel_abs="698.477148"/>
    </tripinfo>
    <tripinfo id="HDV_6_2" depart="120.00" departLane="beg_0" departPos="0.00" departSpeed="13.89" departDelay="0.00" arrival="372.00" arrivalLane="rend_0" arrivalPos="500.00" arrivalSpeed="13.89" duration="252.00" routeLength="3481.20" waitSteps="0" rerouteNo="0" devices="tripinfo_HDV_6_2 hbefa_HDV_6_2" vType="HDV_6_2" vaporized="">
        <emissions CO_abs="5458.431470" CO2_abs="3187647.196043" HC_abs="1497.113538" PMx_abs="520.686680" NOx_abs="28428.654362" fuel_abs="1270.864388"/>
    </tripinfo>
    <tripinfo id="HDV_6_3" depart="140.00" departLane="beg_0" departPos="0.00" departSpeed="13.89" departDelay="0.00" arrival="392.00" arrivalLane="rend_0" arrivalPos="500.00" arrivalSpeed="13.89" duration="252.00" routeLength="3481.20" waitSteps="0" rerouteNo="0" devices="tripinfo_HDV_6_3 hbefa_HDV_6_3" vType="HDV_6_3" vaporized="">
        <emissions CO_abs="6448.249954" CO2_abs="3107327.931661" HC_abs="1671.348420" PMx_abs="835.967168" NOx_abs="32306.103788" fuel_abs="1194.812398"/>
    </tripinfo>
    <tripinfo id="HDV_6_4" depart="160.00" departLane="beg_0" departPos="0.00" departSpeed="13.89" departDelay="0.00" arrival="412.00" arrivalLane="rend_0" arrivalPos="500.00" arrivalSpeed="13.89" duration="252.00" routeLength="3481.20" waitSteps="0" rerouteNo="0" devices="tripinfo_HDV_6_4 hbefa_HDV_6_4" vType="HDV_6_4" vaporized="">
        <emissions CO_abs="7880.371418" CO2_abs="3466798.507764" HC_abs="2209.071012" PMx_abs="1534.119188" NOx_abs="45465.391338" fuel_abs="1382.158965"/>
    </tripinfo>
    <tripinfo id="HDV_6_5" depart="180.00" departLane="beg_0" departPos="0.00" departSpeed="13.89" departDelay="0.00" arrival="432.00" arrivalLane="rend_0" arrivalPos="500.00" arrivalSpeed="13.89" duration="252.00" routeLength="3481.20" waitSteps="0" rerouteNo="0" devices="tripinfo_HDV_6_5 hbefa_HDV_6_5" vType="HDV_6_5" vaporized="">
        <emissions CO_abs="6769.953663" CO2_abs="3520399.033635" HC_abs="2642.095450" PMx_abs="1340.120843" NOx_abs="45719.244860" fuel_abs="1348.221106"/>
    </tripinfo>
    <tripinfo id="HDV_6_6" depart="200.00" departLane="beg_0" departPos="0.00" departSpeed="13.89" departDelay="0.00" arrival="452.00" arrivalLane="rend_0" arrivalPos="500.00" arrivalSpeed="13.89" duration="252.00" routeLength="3481.20" waitSteps="0" rerouteNo="0" devices="tripinfo_HDV_6_6 hbefa_HDV_6_6" vType="HDV_6_6" vaporized="">
        <emissions CO_abs="7465.644793" CO2_abs="2702170.812250" HC_abs="2615.222262" PMx_abs="1247.602666" NOx_abs="30275.556205" fuel_abs="1077.314748"/>
    </tripinfo>
    <tripinfo id="HDV_12_1" depart="300.00" departLane="beg_0" departPos="0.00" departSpeed="13.89" departDelay="0.00" arrival="552.00" arrivalLane="rend_0" arrivalPos="500.00" arrivalSpeed="13.89" duration="252.00" routeLength="3481.20" waitSteps="0" rerouteNo="0" devices="tripinfo_HDV_12_1 hbefa_HDV_12_1" vType="HDV_12_1" vaporized="">
        <emissions CO_abs="3981.367591" CO2_abs="1882347.078100" HC_abs="956.328227" PMx_abs="406.955086" NOx_abs="20669.131178" fuel_abs="750.462021"/>
    </tripinfo>
    <tripinfo id="HDV_12_2" depart="320.00" departLane="beg_0" departPos="0.00" departSpeed="13.89" departDelay="0.00" arrival="572.00" arrivalLane="rend_0" arrivalPos="500.00" arrivalSpeed="13.89" duration="252.00" routeLength="3481.20" waitSteps="0" rerouteNo="0" devices="tripinfo_HDV_12_2 hbefa_HDV_12_2" vType="HDV_12_2" vaporized="">
        <emissions CO_abs="2697.268608" CO2_abs="1244618.110136" HC_abs="729.857150" PMx_abs="350.205130" NOx_abs="12784.896649" fuel_abs="496.209028"/>
    </tripinfo>
    <tripinfo id="HDV_12_3" depart="340.00" departLane="beg_0" departPos="0.00" departSpeed="13.89" departDelay="0.00" arrival="592.00" arrivalLane="rend_0" arrivalPos="500.00" arrivalSpeed="13.89" duration="252.00" routeLength="3481.20" waitSteps="0" rerouteNo="0" devices="tripinfo_HDV_12_3 hbefa_HDV_12_3" vType="HDV_12_3" vaporized="">
        <emissions CO_abs="5406.771963" CO2_abs="2229459.297362" HC_abs="1954.392442" PMx_abs="971.333925" NOx_abs="22919.230714" fuel_abs="888.850383"/>
    </tripinfo>
    <tripinfo id="HDV_12_4" depart="360.00" departLane="beg_0" departPos="0.00" departSpeed="13.89" departDelay="0.00" arrival="612.00" arrivalLane="rend_0" arrivalPos="500.00" arrivalSpeed="13.89" duration="252.00" routeLength="3481.20" waitSteps="0" rerouteNo="0" devices="tripinfo_HDV_12_4 hbefa_HDV_12_4" vType="HDV_12_4" vaporized="">
        <emissions CO_abs="8063.034407" CO2_abs="3602347.761626" HC_abs="2254.778367" PMx_abs="1579.424427" NOx_abs="47265.320088" fuel_abs="1436.201207"/>
    </tripinfo>
    <tripinfo id="HDV_12_5" depart="380.00" departLane="beg_0" departPos="0.00" departSpeed="13.89" departDelay="0.00" arrival="632.00" arrivalLane="rend_0" arrivalPos="500.00" arrivalSpeed="13.89" duration="252.00" routeLength="3481.20" waitSteps="0" rerouteNo="0" devices="tripinfo_HDV_12_5 hbefa_HDV_12_5" vType="HDV_12_5" vaporized="">
        <emissions CO_abs="5341.425093" CO2_abs="3091059.179545" HC_abs="1472.661869" PMx_abs="563.349653" NOx_abs="35517.760793" fuel_abs="1232.356574"/>
    </tripinfo>
    <tripinfo id="HDV_12_6" depart="400.00" departLane="beg_0" departPos="0.00" departSpeed="13.89" departDelay="0.00" arrival="652.00" arrivalLane="rend_0" arrivalPos="500.00" arrivalSpeed="13.89" duration="252.00" routeLength="3481.20" waitSteps="0" rerouteNo="0" devices="tripinfo_HDV_12_6 hbefa_HDV_12_6" vType="HDV_12_6" vaporized="">
        <emissions CO_abs="7227.349863" CO2_abs="3333574.887137" HC_abs="2566.899581" PMx_abs="1394.317108" NOx_abs="33672.920547" fuel_abs="1329.046000"/>
    </tripinfo>
    <tripinfo id="HDV_12_7" depart="420.00" departLane="beg_0" departPos="0.00" departSpeed="13.89" departDelay="0.00" arrival="672.00" arrivalLane="rend_0" arrivalPos="500.00" arrivalSpeed="13.89" duration="252.00" routeLength="3481.20" waitSteps="0" rerouteNo="0" devices="tripinfo_HDV_12_7 hbefa_HDV_12_7" vType="HDV_12_7" vaporized="">
        <emissions CO_abs="6596.035659" CO2_abs="1497090.250715" HC_abs="2815.302936" PMx_abs="935.935954" NOx_abs="20109.748190" fuel_abs="596.862693"/>
    </tripinfo>
    <tripinfo id="HDV_12_8" depart="440.00" departLane="beg_0" departPos="0.00" departSpeed="13.89" departDelay="0.00" arrival="692.00" arrivalLane="rend_0" arrivalPos="500.00" arrivalSpeed="13.89" duration="252.00" routeLength="3481.20" waitSteps="0" rerouteNo="0" devices="tripinfo_HDV_12_8 hbefa_HDV_12_8" vType="HDV_12_8" vaporized="">
        <emissions CO_abs="10007.878150" CO2_abs="2317801.430674" HC_abs="3376.553119" PMx_abs="1336.627878" NOx_abs="33775.180943" fuel_abs="924.072832"/>
    </tripinfo>
    <tripinfo id="HDV_12_9" depart="460.00" departLane="beg_0" departPos="0.00" departSpeed="13.89" departDelay="0.00" arrival="712.00" arrivalLane="rend_0" arrivalPos="500.00" arrivalSpeed="13.89" duration="252.00" routeLength="3481.20" waitSteps="0" rerouteNo="0" devices="tripinfo_HDV_12_9 hbefa_HDV_12_9" vType="HDV_12_9" vaporized="">
        <emissions CO_abs="6769.953663" CO2_abs="3520399.033635" HC_abs="2642.095450" PMx_abs="1340.120843" NOx_abs="45719.244860" fuel_abs="1348.221106"/>
    </tripinfo>
    <tripinfo id="HDV_12_10" depart="480.00" departLane="beg_0" departPos="0.00" departSpeed="13.89" departDelay="0.00" arrival="732.00" arrivalLane="rend_0" arrivalPos="500.00" arrivalSpeed="13.89" duration="252.00" routeLength="3481.20" waitSteps="0" rerouteNo="0" devices="tripinfo_HDV_12_10 hbefa_HDV_12_10" vType="HDV_12_10" vaporized="">
        <emissions CO_abs="5551.433998" CO2_abs="3256642.597806" HC_abs="1514.207534" PMx_abs="490.249959" NOx_abs="23365.005096" fuel_abs="1298.370089"/>
    </tripinfo>
    <tripinfo id="HDV_12_11" depart="500.00" departLane="beg_0" departPos="0.00" departSpeed="13.89" departDelay="0.00" arrival="752.00" arrivalLane="rend_0" arrivalPos="500.00" arrivalSpeed="13.89" duration="252.00" routeLength="3481.20" waitSteps="0" rerouteNo="0" devices="tripinfo_HDV_12_11 hbefa_HDV_12_11" vType="HDV_12_11" vaporized="">
        <emissions CO_abs="6448.249954" CO2_abs="3107327.931661" HC_abs="1671.348420" PMx_abs="835.967168" NOx_abs="32306.103788" fuel_abs="1194.812398"/>
    </tripinfo>
    <tripinfo id="HDV_12_12" depart="520.00" departLane="beg_0" departPos="0.00" departSpeed="13.89" departDelay="0.00" arrival="772.00" arrivalLane="rend_0" arrivalPos="500.00" arrivalSpeed="13.89" duration="252.00" routeLength="3481.20" waitSteps="0" rerouteNo="0" devices="tripinfo_HDV_12_12 hbefa_HDV_12_12" vType="HDV_12_12" vaporized="">
        <emissions CO_abs="5258.371542" CO2_abs="2547902.138452" HC_abs="1506.225612" PMx_abs="532.096856" NOx_abs="23000.639075" fuel_abs="1015.808977"/>
    </tripinfo>
    <tripinfo id="P_7_1" depart="600.00" departLane="beg_0" departPos="0.00" departSpeed="13.89" departDelay="0.00" arrival="852.00" arrivalLane="rend_0" arrivalPos="500.00" arrivalSpeed="13.89" duration="252.00" routeLength="3481.20" waitSteps="0" rerouteNo="0" devices="tripinfo_P_7_1 hbefa_P_7_1" vType="P_7_1" vaporized="">
        <emissions CO_abs="1957.634755" CO2_abs="809930.840541" HC_abs="5413.240162" PMx_abs="0" NOx_abs="9045.791979" fuel_abs="322.910009"/>
    </tripinfo>
    <tripinfo id="P_7_2" depart="620.00" departLane="beg_0" departPos="0.00" departSpeed="13.89" departDelay="0.00" arrival="872.00" arrivalLane="rend_0" arrivalPos="500.00" arrivalSpeed="13.89" duration="252.00" routeLength="3481.20" waitSteps="0" rerouteNo="0" devices="tripinfo_P_7_2 hbefa_P_7_2" vType="P_7_2" vaporized="">
        <emissions CO_abs="2009.376801" CO2_abs="845407.589955" HC_abs="261.638202" PMx_abs="0" NOx_abs="3033.592689" fuel_abs="337.055147"/>
    </tripinfo>
    <tripinfo id="P_7_3" depart="640.00" departLane="beg_0" departPos="0.00" departSpeed="13.89" departDelay="0.00" arrival="892.00" arrivalLane="rend_0" arrivalPos="500.00" arrivalSpeed="13.89" duration="252.00" routeLength="3481.20" waitSteps="0" rerouteNo="0" devices="tripinfo_P_7_3 hbefa_P_7_3" vType="P_7_3" vaporized="">
        <emissions CO_abs="5736.889355" CO2_abs="691576.649401" HC_abs="1266.943945" PMx_abs="0" NOx_abs="2392.770336" fuel_abs="275.190812"/>
    </tripinfo>
    <tripinfo id="P_7_4" depart="660.00" departLane="beg_0" departPos="0.00" departSpeed="13.89" departDelay="0.00" arrival="912.00" arrivalLane="rend_0" arrivalPos="500.00" arrivalSpeed="13.89" duration="252.00" routeLength="3481.20" waitSteps="0" rerouteNo="0" devices="tripinfo_P_7_4 hbefa_P_7_4" vType="P_7_4" vaporized="">
        <emissions CO_abs="20815.083688" CO2_abs="760115.202079" HC_abs="5117.999588" PMx_abs="0" NOx_abs="7886.187800" fuel_abs="303.042820"/>
    </tripinfo>
    <tripinfo id="P_7_5" depart="680.00" departLane="beg_0" departPos="0.00" departSpeed="13.89" departDelay="0.00" arrival="932.00" arrivalLane="rend_0" arrivalPos="500.00" arrivalSpeed="13.89" duration="252.00" routeLength="3481.20" waitSteps="0" rerouteNo="0" devices="tripinfo_P_7_5 hbefa_P_7_5" vType="P_7_5" vaporized="">
        <emissions CO_abs="1195.130051" CO2_abs="683600.027953" HC_abs="186.862710" PMx_abs="188.040163" NOx_abs="1753.485295" fuel_abs="272.541891"/>
    </tripinfo>
    <tripinfo id="P_7_6" depart="700.00" departLane="beg_0" departPos="0.00" departSpeed="13.89" departDelay="0.00" arrival="952.00" arrivalLane="rend_0" arrivalPos="500.00" arrivalSpeed="13.89" duration="252.00" routeLength="3481.20" waitSteps="0" rerouteNo="0" devices="tripinfo_P_7_6 hbefa_P_7_6" vType="P_7_6" vaporized="">
        <emissions CO_abs="1224.881242" CO2_abs="867799.406708" HC_abs="263.150571" PMx_abs="242.739655" NOx_abs="2563.994304" fuel_abs="345.975009"/>
    </tripinfo>
    <tripinfo id="P_7_7" depart="720.00" departLane="beg_0" departPos="0.00" departSpeed="13.89" departDelay="0.00" arrival="972.00" arrivalLane="rend_0" arrivalPos="500.00" arrivalSpeed="13.89" duration="252.00" routeLength="3481.20" waitSteps="0" rerouteNo="0" devices="tripinfo_P_7_7 hbefa_P_7_7" vType="P_7_7" vaporized="">
        <emissions CO_abs="331.487794" CO2_abs="548252.188942" HC_abs="89.372577" PMx_abs="36.866828" NOx_abs="932.220464" fuel_abs="218.580085"/>
    </tripinfo>
    <tripinfo id="P_14_1" depart="800.00" departLane="beg_0" departPos="0.00" departSpeed="13.89" departDelay="0.00" arrival="1052.00" arrivalLane="rend_0" arrivalPos="500.00" arrivalSpeed="13.89" duration="252.00" routeLength="3481.20" waitSteps="0" rerouteNo="0" devices="tripinfo_P_14_1 hbefa_P_14_1" vType="P_14_1" vaporized="">
        <emissions CO_abs="1946.011243" CO2_abs="792255.320831" HC_abs="31.343535" PMx_abs="0" NOx_abs="2647.888837" fuel_abs="315.864045"/>
    </tripinfo>
    <tripinfo id="P_14_2" depart="820.00" departLane="beg_0" departPos="0.00" departSpeed="13.89" departDelay="0.00" arrival="1072.00" arrivalLane="rend_0" arrivalPos="500.00" arrivalSpeed="13.89" duration="252.00" routeLength="3481.20" waitSteps="0" rerouteNo="0" devices="tripinfo_P_14_2 hbefa_P_14_2" vType="P_14_2" vaporized="">
        <emissions CO_abs="1957.634755" CO2_abs="809930.840541" HC_abs="5413.240162" PMx_abs="0" NOx_abs="9045.791979" fuel_abs="322.910009"/>
    </tripinfo>
    <tripinfo id="P_14_3" depart="840.00" departLane="beg_0" departPos="0.00" departSpeed="13.89" departDelay="0.00" arrival="1092.00" arrivalLane="rend_0" arrivalPos="500.00" arrivalSpeed="13.89" duration="252.00" routeLength="3481.20" waitSteps="0" rerouteNo="0" devices="tripinfo_P_14_3 hbefa_P_14_3" vType="P_14_3" vaporized="">
        <emissions CO_abs="2078.612335" CO2_abs="898559.685716" HC_abs="491.932869" PMx_abs="0" NOx_abs="3419.292932" fuel_abs="358.246239"/>
    </tripinfo>
    <tripinfo id="P_14_4" depart="860.00" departLane="beg_0" departPos="0.00" departSpeed="13.89" departDelay="0.00" arrival="1112.00" arrivalLane="rend_0" arrivalPos="500.00" arrivalSpeed="13.89" duration="252.00" routeLength="3481.20" waitSteps="0" rerouteNo="0" devices="tripinfo_P_14_4 hbefa_P_14_4" vType="P_14_4" vaporized="">
        <emissions CO_abs="1191.592062" CO2_abs="603876.112287" HC_abs="270.348997" PMx_abs="106.852370" NOx_abs="1935.622097" fuel_abs="240.757563"/>
    </tripinfo>
    <tripinfo id="P_14_5" depart="880.00" departLane="beg_0" departPos="0.00" departSpeed="13.89" departDelay="0.00" arrival="1132.00" arrivalLane="rend_0" arrivalPos="500.00" arrivalSpeed="13.89" duration="252.00" routeLength="3481.20" waitSteps="0" rerouteNo="0" devices="tripinfo_P_14_5 hbefa_P_14_5" vType="P_14_5" vaporized="">
        <emissions CO_abs="452.618031" CO2_abs="867799.406708" HC_abs="136.933137" PMx_abs="87.579205" NOx_abs="1484.908506" fuel_abs="345.975009"/>
    </tripinfo>
    <tripinfo id="P_14_6" depart="900.00" departLane="beg_0" departPos="0.00" departSpeed="13.89" departDelay="0.00" arrival="1152.00" arrivalLane="rend_0" arrivalPos="500.00" arrivalSpeed="13.89" duration="252.00" routeLength="3481.20" waitSteps="0" rerouteNo="0" devices="tripinfo_P_14_6 hbefa_P_14_6" vType="P_14_6" vaporized="">
        <emissions CO_abs="1470.469058" CO2_abs="867799.406708" HC_abs="300.028393" PMx_abs="284.659733" NOx_abs="2785.418437" fuel_abs="345.975009"/>
    </tripinfo>
    <tripinfo id="P_14_7" depart="920.00" departLane="beg_0" departPos="0.00" departSpeed="13.89" departDelay="0.00" arrival="1172.00" arrivalLane="rend_0" arrivalPos="500.00" arrivalSpeed="13.89" duration="252.00" routeLength="3481.20" waitSteps="0" rerouteNo="0" devices="tripinfo_P_14_7 hbefa_P_14_7" vType="P_14_7" vaporized="">
        <emissions CO_abs="3235.168258" CO2_abs="695314.636438" HC_abs="489.009041" PMx_abs="0" NOx_abs="1480.012120" fuel_abs="277.210919"/>
    </tripinfo>
    <tripinfo id="P_14_8" depart="940.00" departLane="beg_0" departPos="0.00" departSpeed="13.89" departDelay="0.00" arrival="1192.00" arrivalLane="rend_0" arrivalPos="500.00" arrivalSpeed="13.89" duration="252.00" routeLength="3481.20" waitSteps="0" rerouteNo="0" devices="tripinfo_P_14_8 hbefa_P_14_8" vType="P_14_8" vaporized="">
        <emissions CO_abs="493.439871" CO2_abs="444181.176135" HC_abs="97.797360" PMx_abs="74.854028" NOx_abs="1315.993483" fuel_abs="177.089362"/>
    </tripinfo>
    <tripinfo id="P_14_9" depart="960.00" departLane="beg_0" departPos="0.00" departSpeed="13.89" departDelay="0.00" arrival="1212.00" arrivalLane="rend_0" arrivalPos="500.00" arrivalSpeed="13.89" duration="252.00" routeLength="3481.20" waitSteps="0" rerouteNo="0" devices="tripinfo_P_14_9 hbefa_P_14_9" vType="P_14_9" vaporized="">
        <emissions CO_abs="557.757867" CO2_abs="554322.658958" HC_abs="52.559682" PMx_abs="0" NOx_abs="350.738617" fuel_abs="221.001300"/>
    </tripinfo>
    <tripinfo id="P_14_10" depart="980.00" departLane="beg_0" departPos="0.00" departSpeed="13.89" departDelay="0.00" arrival="1232.00" arrivalLane="rend_0" arrivalPos="500.00" arrivalSpeed="13.89" duration="252.00" routeLength="3481.20" waitSteps="0" rerouteNo="0" devices="tripinfo_P_14_10 hbefa_P_14_10" vType="P_14_10" vaporized="">
        <emissions CO_abs="1390.067526" CO2_abs="637549.789505" HC_abs="202.590967" PMx_abs="220.505288" NOx_abs="1924.330651" fuel_abs="254.183558"/>
    </tripinfo>
    <tripinfo id="P_14_11" depart="1000.00" departLane="beg_0" departPos="0.00" departSpeed="13.89" departDelay="0.00" arrival="1252.00" arrivalLane="rend_0" arrivalPos="500.00" arrivalSpeed="13.89" duration="252.00" routeLength="3481.20" waitSteps="0" rerouteNo="0" devices="tripinfo_P_14_11 hbefa_P_14_11" vType="P_14_11" vaporized="">
        <emissions CO_abs="10189.563711" CO2_abs="603675.992693" HC_abs="3863.617473" PMx_abs="0" NOx_abs="5107.137961" fuel_abs="238.554844"/>
    </tripinfo>
    <tripinfo id="P_14_12" depart="1020.00" departLane="beg_0" departPos="0.00" departSpeed="13.89" departDelay="0.00" arrival="1272.00" arrivalLane="rend_0" arrivalPos="500.00" arrivalSpeed="13.89" duration="252.00" routeLength="3481.20" waitSteps="0" rerouteNo="0" devices="tripinfo_P_14_12 hbefa_P_14_12" vType="P_14_12" vaporized="">
        <emissions CO_abs="20815.083688" CO2_abs="760115.202079" HC_abs="5117.999588" PMx_abs="0" NOx_abs="7886.187800" fuel_abs="303.042820"/>
    </tripinfo>
    <tripinfo id="P_14_13" depart="1040.00" departLane="beg_0" departPos="0.00" departSpeed="13.89" departDelay="0.00" arrival="1292.00" arrivalLane="rend_0" arrivalPos="500.00" arrivalSpeed="13.89" duration="252.00" routeLength="3481.20" waitSteps="0" rerouteNo="0" devices="tripinfo_P_14_13 hbefa_P_14_13" vType="P_14_13" vaporized="">
        <emissions CO_abs="525.016201" CO2_abs="749191.460190" HC_abs="9.712005" PMx_abs="0" NOx_abs="497.498110" fuel_abs="298.688399"/>
    </tripinfo>
    <tripinfo id="P_14_14" depart="1060.00" departLane="beg_0" departPos="0.00" departSpeed="13.89" departDelay="0.00" arrival="1312.00" arrivalLane="rend_0" arrivalPos="500.00" arrivalSpeed="13.89" duration="252.00" routeLength="3481.20" waitSteps="0" rerouteNo="0" devices="tripinfo_P_14_14 hbefa_P_14_14" vType="P_14_14" vaporized="">
        <emissions CO_abs="3364.618718" CO2_abs="688064.645678" HC_abs="205.799305" PMx_abs="0" NOx_abs="1537.861514" fuel_abs="274.320278"/>
    </tripinfo>
</tripinfos>
