<?xml version="1.0"?>

<!-- generated on 06/08/09 15:26:17 by SUMO sumo Version dev-SVN-r7259
<configuration>

    <input
        net-file="three_split.net.xml"
        additional-files="input_routes.rou.xml"
    />

    <output
        tripinfo-output="tripinfos.xml"
    />

    <time
        begin="0"
    />

    <processing
        no-duration-log="true"
        no-step-log="true"
    />

    <emissions
        device.hbefa.probability="1"
    />

</configuration>
-->

<tripinfos>
    <tripinfo id="HDV_3_1" depart="0" departLane="beg_0" departPos="0.00" departSpeed="13.89" departDelay="0" arrival="216" arrivalLane="end_0" arrivalPos="8.10" arrivalSpeed="13.89" duration="216" routeLength="2994.05" waitSteps="0" rerouteNo="0" devices="hbefa_HDV_3_1" vtype="HDV_3_1" vaporized="">
        <emissions CO_abs="3.62" CO2_abs="1523.94" HC_abs="1.13" PMx_abs="0.44" NOx_abs="15.52" fuel_abs="0.61"/>
    </tripinfo>
    <tripinfo id="HDV_3_2" depart="20" departLane="beg_0" departPos="0.00" departSpeed="13.89" departDelay="0" arrival="236" arrivalLane="end_0" arrivalPos="8.10" arrivalSpeed="13.89" duration="216" routeLength="2994.05" waitSteps="0" rerouteNo="0" devices="hbefa_HDV_3_2" vtype="HDV_3_2" vaporized="">
        <emissions CO_abs="6.87" CO2_abs="2611.57" HC_abs="2.20" PMx_abs="1.21" NOx_abs="32.07" fuel_abs="1.04"/>
    </tripinfo>
    <tripinfo id="HDV_3_3" depart="40" departLane="beg_0" departPos="0.00" departSpeed="13.89" departDelay="0" arrival="256" arrivalLane="end_0" arrivalPos="8.10" arrivalSpeed="13.89" duration="216" routeLength="2994.05" waitSteps="0" rerouteNo="0" devices="hbefa_HDV_3_3" vtype="HDV_3_3" vaporized="">
        <emissions CO_abs="4.97" CO2_abs="2656.84" HC_abs="1.36" PMx_abs="0.54" NOx_abs="25.49" fuel_abs="1.05"/>
    </tripinfo>
    <tripinfo id="HDV_6_1" depart="100" departLane="beg_0" departPos="0.00" departSpeed="13.89" departDelay="0" arrival="316" arrivalLane="end_0" arrivalPos="8.10" arrivalSpeed="13.89" duration="216" routeLength="2994.05" waitSteps="0" rerouteNo="0" devices="hbefa_HDV_6_1" vtype="HDV_6_1" vaporized="">
        <emissions CO_abs="3.44" CO2_abs="1467.91" HC_abs="1.03" PMx_abs="0.38" NOx_abs="14.89" fuel_abs="0.59"/>
    </tripinfo>
    <tripinfo id="HDV_6_2" depart="120" departLane="beg_0" departPos="0.00" departSpeed="13.89" departDelay="0" arrival="336" arrivalLane="end_0" arrivalPos="8.10" arrivalSpeed="13.89" duration="216" routeLength="2994.05" waitSteps="0" rerouteNo="0" devices="hbefa_HDV_6_2" vtype="HDV_6_2" vaporized="">
        <emissions CO_abs="4.78" CO2_abs="2649.46" HC_abs="1.27" PMx_abs="0.44" NOx_abs="24.01" fuel_abs="1.06"/>
    </tripinfo>
    <tripinfo id="HDV_6_3" depart="140" departLane="beg_0" departPos="0.00" departSpeed="13.89" departDelay="0" arrival="356" arrivalLane="end_0" arrivalPos="8.10" arrivalSpeed="13.89" duration="216" routeLength="2994.05" waitSteps="0" rerouteNo="0" devices="hbefa_HDV_6_3" vtype="HDV_6_3" vaporized="">
        <emissions CO_abs="5.46" CO2_abs="2591.66" HC_abs="1.43" PMx_abs="0.71" NOx_abs="27.17" fuel_abs="1.00"/>
    </tripinfo>
    <tripinfo id="HDV_6_4" depart="160" departLane="beg_0" departPos="0.00" departSpeed="13.89" departDelay="0" arrival="376" arrivalLane="end_0" arrivalPos="8.10" arrivalSpeed="13.89" duration="216" routeLength="2994.05" waitSteps="0" rerouteNo="0" devices="hbefa_HDV_6_4" vtype="HDV_6_4" vaporized="">
        <emissions CO_abs="6.78" CO2_abs="2889.74" HC_abs="1.89" PMx_abs="1.30" NOx_abs="37.91" fuel_abs="1.15"/>
    </tripinfo>
    <tripinfo id="HDV_6_5" depart="180" departLane="beg_0" departPos="0.00" departSpeed="13.89" departDelay="0" arrival="396" arrivalLane="end_0" arrivalPos="8.10" arrivalSpeed="13.89" duration="216" routeLength="2994.05" waitSteps="0" rerouteNo="0" devices="hbefa_HDV_6_5" vtype="HDV_6_5" vaporized="">
        <emissions CO_abs="5.76" CO2_abs="2941.06" HC_abs="2.26" PMx_abs="1.13" NOx_abs="38.15" fuel_abs="1.13"/>
    </tripinfo>
    <tripinfo id="HDV_6_6" depart="200" departLane="beg_0" departPos="0.00" departSpeed="13.89" departDelay="0" arrival="416" arrivalLane="end_0" arrivalPos="8.10" arrivalSpeed="13.89" duration="216" routeLength="2994.05" waitSteps="0" rerouteNo="0" devices="hbefa_HDV_6_6" vtype="HDV_6_6" vaporized="">
        <emissions CO_abs="6.31" CO2_abs="2254.89" HC_abs="2.23" PMx_abs="1.05" NOx_abs="25.40" fuel_abs="0.90"/>
    </tripinfo>
    <tripinfo id="HDV_12_1" depart="300" departLane="beg_0" departPos="0.00" departSpeed="13.89" departDelay="0" arrival="516" arrivalLane="end_0" arrivalPos="8.10" arrivalSpeed="13.89" duration="216" routeLength="2994.05" waitSteps="0" rerouteNo="0" devices="hbefa_HDV_12_1" vtype="HDV_12_1" vaporized="">
        <emissions CO_abs="3.44" CO2_abs="1569.83" HC_abs="0.81" PMx_abs="0.35" NOx_abs="17.50" fuel_abs="0.63"/>
    </tripinfo>
    <tripinfo id="HDV_12_2" depart="320" departLane="beg_0" departPos="0.00" departSpeed="13.89" departDelay="0" arrival="536" arrivalLane="end_0" arrivalPos="8.10" arrivalSpeed="13.89" duration="216" routeLength="2994.05" waitSteps="0" rerouteNo="0" devices="hbefa_HDV_12_2" vtype="HDV_12_2" vaporized="">
        <emissions CO_abs="2.30" CO2_abs="1046.85" HC_abs="0.63" PMx_abs="0.30" NOx_abs="10.80" fuel_abs="0.42"/>
    </tripinfo>
    <tripinfo id="HDV_12_3" depart="340" departLane="beg_0" departPos="0.00" departSpeed="13.89" departDelay="0" arrival="556" arrivalLane="end_0" arrivalPos="8.10" arrivalSpeed="13.89" duration="216" routeLength="2994.05" waitSteps="0" rerouteNo="0" devices="hbefa_HDV_12_3" vtype="HDV_12_3" vaporized="">
        <emissions CO_abs="4.59" CO2_abs="1862.88" HC_abs="1.66" PMx_abs="0.82" NOx_abs="19.27" fuel_abs="0.74"/>
    </tripinfo>
    <tripinfo id="HDV_12_4" depart="360" departLane="beg_0" departPos="0.00" departSpeed="13.89" departDelay="0" arrival="576" arrivalLane="end_0" arrivalPos="8.10" arrivalSpeed="13.89" duration="216" routeLength="2994.05" waitSteps="0" rerouteNo="0" devices="hbefa_HDV_12_4" vtype="HDV_12_4" vaporized="">
        <emissions CO_abs="6.94" CO2_abs="3000.57" HC_abs="1.92" PMx_abs="1.34" NOx_abs="39.39" fuel_abs="1.20"/>
    </tripinfo>
    <tripinfo id="HDV_12_5" depart="380" departLane="beg_0" departPos="0.00" departSpeed="13.89" departDelay="0" arrival="596" arrivalLane="end_0" arrivalPos="8.10" arrivalSpeed="13.89" duration="216" routeLength="2994.05" waitSteps="0" rerouteNo="0" devices="hbefa_HDV_12_5" vtype="HDV_12_5" vaporized="">
        <emissions CO_abs="4.65" CO2_abs="2568.93" HC_abs="1.25" PMx_abs="0.48" NOx_abs="29.91" fuel_abs="1.02"/>
    </tripinfo>
    <tripinfo id="HDV_12_6" depart="400" departLane="beg_0" departPos="0.00" departSpeed="13.89" departDelay="0" arrival="616" arrivalLane="end_0" arrivalPos="8.10" arrivalSpeed="13.89" duration="216" routeLength="2994.05" waitSteps="0" rerouteNo="0" devices="hbefa_HDV_12_6" vtype="HDV_12_6" vaporized="">
        <emissions CO_abs="6.16" CO2_abs="2775.63" HC_abs="2.18" PMx_abs="1.17" NOx_abs="28.18" fuel_abs="1.11"/>
    </tripinfo>
    <tripinfo id="HDV_12_7" depart="420" departLane="beg_0" departPos="0.00" departSpeed="13.89" departDelay="0" arrival="636" arrivalLane="end_0" arrivalPos="8.10" arrivalSpeed="13.89" duration="216" routeLength="2994.05" waitSteps="0" rerouteNo="0" devices="hbefa_HDV_12_7" vtype="HDV_12_7" vaporized="">
        <emissions CO_abs="5.59" CO2_abs="1267.47" HC_abs="2.43" PMx_abs="0.79" NOx_abs="16.99" fuel_abs="0.51"/>
    </tripinfo>
    <tripinfo id="HDV_12_8" depart="440" departLane="beg_0" departPos="0.00" departSpeed="13.89" departDelay="0" arrival="656" arrivalLane="end_0" arrivalPos="8.10" arrivalSpeed="13.89" duration="216" routeLength="2994.05" waitSteps="0" rerouteNo="0" devices="hbefa_HDV_12_8" vtype="HDV_12_8" vaporized="">
        <emissions CO_abs="8.39" CO2_abs="1938.96" HC_abs="2.90" PMx_abs="1.12" NOx_abs="28.39" fuel_abs="0.77"/>
    </tripinfo>
    <tripinfo id="HDV_12_9" depart="460" departLane="beg_0" departPos="0.00" departSpeed="13.89" departDelay="0" arrival="676" arrivalLane="end_0" arrivalPos="8.10" arrivalSpeed="13.89" duration="216" routeLength="2994.05" waitSteps="0" rerouteNo="0" devices="hbefa_HDV_12_9" vtype="HDV_12_9" vaporized="">
        <emissions CO_abs="5.76" CO2_abs="2941.06" HC_abs="2.26" PMx_abs="1.13" NOx_abs="38.15" fuel_abs="1.13"/>
    </tripinfo>
    <tripinfo id="HDV_12_10" depart="480" departLane="beg_0" departPos="0.00" departSpeed="13.89" departDelay="0" arrival="696" arrivalLane="end_0" arrivalPos="8.10" arrivalSpeed="13.89" duration="216" routeLength="2994.05" waitSteps="0" rerouteNo="0" devices="hbefa_HDV_12_10" vtype="HDV_12_10" vaporized="">
        <emissions CO_abs="4.87" CO2_abs="2706.97" HC_abs="1.29" PMx_abs="0.42" NOx_abs="19.80" fuel_abs="1.08"/>
    </tripinfo>
    <tripinfo id="HDV_12_11" depart="500" departLane="beg_0" departPos="0.00" departSpeed="13.89" departDelay="0" arrival="716" arrivalLane="end_0" arrivalPos="8.10" arrivalSpeed="13.89" duration="216" routeLength="2994.05" waitSteps="0" rerouteNo="0" devices="hbefa_HDV_12_11" vtype="HDV_12_11" vaporized="">
        <emissions CO_abs="5.46" CO2_abs="2591.66" HC_abs="1.43" PMx_abs="0.71" NOx_abs="27.17" fuel_abs="1.00"/>
    </tripinfo>
    <tripinfo id="HDV_12_12" depart="520" departLane="beg_0" departPos="0.00" departSpeed="13.89" departDelay="0" arrival="736" arrivalLane="end_0" arrivalPos="8.10" arrivalSpeed="13.89" duration="216" routeLength="2994.05" waitSteps="0" rerouteNo="0" devices="hbefa_HDV_12_12" vtype="HDV_12_12" vaporized="">
        <emissions CO_abs="4.50" CO2_abs="2132.54" HC_abs="1.29" PMx_abs="0.46" NOx_abs="19.48" fuel_abs="0.85"/>
    </tripinfo>
    <tripinfo id="P_7_1" depart="600" departLane="beg_0" departPos="0.00" departSpeed="13.89" departDelay="0" arrival="816" arrivalLane="end_0" arrivalPos="8.10" arrivalSpeed="13.89" duration="216" routeLength="2994.05" waitSteps="0" rerouteNo="0" devices="hbefa_P_7_1" vtype="P_7_1" vaporized="">
        <emissions CO_abs="0.27" CO2_abs="681.49" HC_abs="4.62" PMx_abs="0.00" NOx_abs="7.56" fuel_abs="0.27"/>
    </tripinfo>
    <tripinfo id="P_7_2" depart="620" departLane="beg_0" departPos="0.00" departSpeed="13.89" departDelay="0" arrival="836" arrivalLane="end_0" arrivalPos="8.10" arrivalSpeed="13.89" duration="216" routeLength="2994.05" waitSteps="0" rerouteNo="0" devices="hbefa_P_7_2" vtype="P_7_2" vaporized="">
        <emissions CO_abs="0.04" CO2_abs="708.87" HC_abs="0.20" PMx_abs="0.00" NOx_abs="2.45" fuel_abs="0.28"/>
    </tripinfo>
    <tripinfo id="P_7_3" depart="640" departLane="beg_0" departPos="0.00" departSpeed="13.89" departDelay="0" arrival="856" arrivalLane="end_0" arrivalPos="8.10" arrivalSpeed="13.89" duration="216" routeLength="2994.05" waitSteps="0" rerouteNo="0" devices="hbefa_P_7_3" vtype="P_7_3" vaporized="">
        <emissions CO_abs="4.43" CO2_abs="583.05" HC_abs="1.06" PMx_abs="0.00" NOx_abs="1.99" fuel_abs="0.23"/>
    </tripinfo>
    <tripinfo id="P_7_4" depart="660" departLane="beg_0" departPos="0.00" departSpeed="13.89" departDelay="0" arrival="876" arrivalLane="end_0" arrivalPos="8.10" arrivalSpeed="13.89" duration="216" routeLength="2994.05" waitSteps="0" rerouteNo="0" devices="hbefa_P_7_4" vtype="P_7_4" vaporized="">
        <emissions CO_abs="17.20" CO2_abs="640.46" HC_abs="4.37" PMx_abs="0.00" NOx_abs="6.60" fuel_abs="0.26"/>
    </tripinfo>
    <tripinfo id="P_7_5" depart="680" departLane="beg_0" departPos="0.00" departSpeed="13.89" departDelay="0" arrival="896" arrivalLane="end_0" arrivalPos="8.10" arrivalSpeed="13.89" duration="216" routeLength="2994.05" waitSteps="0" rerouteNo="0" devices="hbefa_P_7_5" vtype="P_7_5" vaporized="">
        <emissions CO_abs="1.00" CO2_abs="574.33" HC_abs="0.16" PMx_abs="0.15" NOx_abs="1.46" fuel_abs="0.23"/>
    </tripinfo>
    <tripinfo id="P_7_6" depart="700" departLane="beg_0" departPos="0.00" departSpeed="13.89" departDelay="0" arrival="916" arrivalLane="end_0" arrivalPos="8.10" arrivalSpeed="13.89" duration="216" routeLength="2994.05" waitSteps="0" rerouteNo="0" devices="hbefa_P_7_6" vtype="P_7_6" vaporized="">
        <emissions CO_abs="1.02" CO2_abs="725.44" HC_abs="0.22" PMx_abs="0.19" NOx_abs="2.12" fuel_abs="0.29"/>
    </tripinfo>
    <tripinfo id="P_7_7" depart="720" departLane="beg_0" departPos="0.00" departSpeed="13.89" departDelay="0" arrival="936" arrivalLane="end_0" arrivalPos="8.10" arrivalSpeed="13.89" duration="216" routeLength="2994.05" waitSteps="0" rerouteNo="0" devices="hbefa_P_7_7" vtype="P_7_7" vaporized="">
        <emissions CO_abs="0.03" CO2_abs="461.52" HC_abs="0.07" PMx_abs="0.03" NOx_abs="0.78" fuel_abs="0.18"/>
    </tripinfo>
    <tripinfo id="P_14_1" depart="800" departLane="beg_0" departPos="0.00" departSpeed="13.89" departDelay="0" arrival="1016" arrivalLane="end_0" arrivalPos="8.10" arrivalSpeed="13.89" duration="216" routeLength="2994.05" waitSteps="0" rerouteNo="0" devices="hbefa_P_14_1" vtype="P_14_1" vaporized="">
        <emissions CO_abs="0.02" CO2_abs="663.82" HC_abs="0.01" PMx_abs="0.00" NOx_abs="2.13" fuel_abs="0.26"/>
    </tripinfo>
    <tripinfo id="P_14_2" depart="820" departLane="beg_0" departPos="0.00" departSpeed="13.89" departDelay="0" arrival="1036" arrivalLane="end_0" arrivalPos="8.10" arrivalSpeed="13.89" duration="216" routeLength="2994.05" waitSteps="0" rerouteNo="0" devices="hbefa_P_14_2" vtype="P_14_2" vaporized="">
        <emissions CO_abs="0.27" CO2_abs="681.49" HC_abs="4.62" PMx_abs="0.00" NOx_abs="7.56" fuel_abs="0.27"/>
    </tripinfo>
    <tripinfo id="P_14_3" depart="840" departLane="beg_0" departPos="0.00" departSpeed="13.89" departDelay="0" arrival="1056" arrivalLane="end_0" arrivalPos="8.10" arrivalSpeed="13.89" duration="216" routeLength="2994.05" waitSteps="0" rerouteNo="0" devices="hbefa_P_14_3" vtype="P_14_3" vaporized="">
        <emissions CO_abs="0.07" CO2_abs="753.93" HC_abs="0.39" PMx_abs="0.00" NOx_abs="2.77" fuel_abs="0.30"/>
    </tripinfo>
    <tripinfo id="P_14_4" depart="860" departLane="beg_0" departPos="0.00" departSpeed="13.89" departDelay="0" arrival="1076" arrivalLane="end_0" arrivalPos="8.10" arrivalSpeed="13.89" duration="216" routeLength="2994.05" waitSteps="0" rerouteNo="0" devices="hbefa_P_14_4" vtype="P_14_4" vaporized="">
        <emissions CO_abs="1.00" CO2_abs="508.15" HC_abs="0.23" PMx_abs="0.09" NOx_abs="1.62" fuel_abs="0.20"/>
    </tripinfo>
    <tripinfo id="P_14_5" depart="880" departLane="beg_0" departPos="0.00" departSpeed="13.89" departDelay="0" arrival="1096" arrivalLane="end_0" arrivalPos="8.10" arrivalSpeed="13.89" duration="216" routeLength="2994.05" waitSteps="0" rerouteNo="0" devices="hbefa_P_14_5" vtype="P_14_5" vaporized="">
        <emissions CO_abs="0.38" CO2_abs="725.44" HC_abs="0.12" PMx_abs="0.07" NOx_abs="1.23" fuel_abs="0.29"/>
    </tripinfo>
    <tripinfo id="P_14_6" depart="900" departLane="beg_0" departPos="0.00" departSpeed="13.89" departDelay="0" arrival="1116" arrivalLane="end_0" arrivalPos="8.10" arrivalSpeed="13.89" duration="216" routeLength="2994.05" waitSteps="0" rerouteNo="0" devices="hbefa_P_14_6" vtype="P_14_6" vaporized="">
        <emissions CO_abs="1.23" CO2_abs="725.44" HC_abs="0.26" PMx_abs="0.23" NOx_abs="2.30" fuel_abs="0.29"/>
    </tripinfo>
    <tripinfo id="P_14_7" depart="920" departLane="beg_0" departPos="0.00" departSpeed="13.89" departDelay="0" arrival="1136" arrivalLane="end_0" arrivalPos="8.10" arrivalSpeed="13.89" duration="216" routeLength="2994.05" waitSteps="0" rerouteNo="0" devices="hbefa_P_14_7" vtype="P_14_7" vaporized="">
        <emissions CO_abs="2.20" CO2_abs="585.98" HC_abs="0.40" PMx_abs="0.00" NOx_abs="1.22" fuel_abs="0.23"/>
    </tripinfo>
    <tripinfo id="P_14_8" depart="940" departLane="beg_0" departPos="0.00" departSpeed="13.89" departDelay="0" arrival="1156" arrivalLane="end_0" arrivalPos="8.10" arrivalSpeed="13.89" duration="216" routeLength="2994.05" waitSteps="0" rerouteNo="0" devices="hbefa_P_14_8" vtype="P_14_8" vaporized="">
        <emissions CO_abs="0.42" CO2_abs="373.50" HC_abs="0.08" PMx_abs="0.06" NOx_abs="1.10" fuel_abs="0.15"/>
    </tripinfo>
    <tripinfo id="P_14_9" depart="960" departLane="beg_0" departPos="0.00" departSpeed="13.89" departDelay="0" arrival="1176" arrivalLane="end_0" arrivalPos="8.10" arrivalSpeed="13.89" duration="216" routeLength="2994.05" waitSteps="0" rerouteNo="0" devices="hbefa_P_14_9" vtype="P_14_9" vaporized="">
        <emissions CO_abs="0.04" CO2_abs="467.03" HC_abs="0.04" PMx_abs="0.00" NOx_abs="0.29" fuel_abs="0.19"/>
    </tripinfo>
    <tripinfo id="P_14_10" depart="980" departLane="beg_0" departPos="0.00" departSpeed="13.89" departDelay="0" arrival="1196" arrivalLane="end_0" arrivalPos="8.10" arrivalSpeed="13.89" duration="216" routeLength="2994.05" waitSteps="0" rerouteNo="0" devices="hbefa_P_14_10" vtype="P_14_10" vaporized="">
        <emissions CO_abs="1.17" CO2_abs="536.55" HC_abs="0.17" PMx_abs="0.18" NOx_abs="1.61" fuel_abs="0.21"/>
    </tripinfo>
    <tripinfo id="P_14_11" depart="1000" departLane="beg_0" departPos="0.00" departSpeed="13.89" departDelay="0" arrival="1216" arrivalLane="end_0" arrivalPos="8.10" arrivalSpeed="13.89" duration="216" routeLength="2994.05" waitSteps="0" rerouteNo="0" devices="hbefa_P_14_11" vtype="P_14_11" vaporized="">
        <emissions CO_abs="8.42" CO2_abs="508.37" HC_abs="3.26" PMx_abs="0.00" NOx_abs="4.28" fuel_abs="0.20"/>
    </tripinfo>
    <tripinfo id="P_14_12" depart="1020" departLane="beg_0" departPos="0.00" departSpeed="13.89" departDelay="0" arrival="1236" arrivalLane="end_0" arrivalPos="8.10" arrivalSpeed="13.89" duration="216" routeLength="2994.05" waitSteps="0" rerouteNo="0" devices="hbefa_P_14_12" vtype="P_14_12" vaporized="">
        <emissions CO_abs="17.20" CO2_abs="640.46" HC_abs="4.37" PMx_abs="0.00" NOx_abs="6.60" fuel_abs="0.26"/>
    </tripinfo>
    <tripinfo id="P_14_13" depart="1040" departLane="beg_0" departPos="0.00" departSpeed="13.89" departDelay="0" arrival="1256" arrivalLane="end_0" arrivalPos="8.10" arrivalSpeed="13.89" duration="216" routeLength="2994.05" waitSteps="0" rerouteNo="0" devices="hbefa_P_14_13" vtype="P_14_13" vaporized="">
        <emissions CO_abs="0.03" CO2_abs="630.68" HC_abs="0.00" PMx_abs="0.00" NOx_abs="0.41" fuel_abs="0.25"/>
    </tripinfo>
    <tripinfo id="P_14_14" depart="1060" departLane="beg_0" departPos="0.00" departSpeed="13.89" departDelay="0" arrival="1276" arrivalLane="end_0" arrivalPos="8.10" arrivalSpeed="13.89" duration="216" routeLength="2994.05" waitSteps="0" rerouteNo="0" devices="hbefa_P_14_14" vtype="P_14_14" vaporized="">
        <emissions CO_abs="2.35" CO2_abs="580.73" HC_abs="0.16" PMx_abs="0.00" NOx_abs="1.27" fuel_abs="0.23"/>
    </tripinfo>
</tripinfos>
