<?xml version="1.0" encoding="UTF-8"?>

<!-- generated on 2021-11-18 13:34:11 by Eclipse SUMO sumo Version v1_10_0+2411-62dbbfd94b2
This data file and the accompanying materials
are made available under the terms of the Eclipse Public License v2.0
which accompanies this distribution, and is available at
http://www.eclipse.org/legal/epl-v20.html
SPDX-License-Identifier: EPL-2.0
<configuration xmlns:xsi="http://www.w3.org/2001/XMLSchema-instance" xsi:noNamespaceSchemaLocation="http://sumo.dlr.de/xsd/sumoConfiguration.xsd">

    <input>
        <net-file value="net2.net.xml"/>
        <route-files value="input_routes.rou.xml"/>
    </input>

    <output>
        <write-license value="true"/>
        <human-readable-time value="true"/>
        <tripinfo-output value="tripinfos.xml"/>
    </output>

    <time>
        <begin value="25:0:0:0"/>
    </time>

    <processing>
        <default.speeddev value="0"/>
    </processing>

    <report>
        <verbose value="true"/>
        <xml-validation value="never"/>
        <xml-validation.routes value="never"/>
        <duration-log.disable value="true"/>
        <no-step-log value="true"/>
    </report>

</configuration>
-->

<tripinfos xmlns:xsi="http://www.w3.org/2001/XMLSchema-instance" xsi:noNamespaceSchemaLocation="http://sumo.dlr.de/xsd/tripinfo_file.xsd">
    <tripinfo id="trip_0" depart="25:00:00:00" departLane="SC_0" departPos="5.10" departSpeed="0.00" departDelay="00:00:00" arrival="25:00:00:17" arrivalLane="CN_0" arrivalPos="91.95" arrivalSpeed="13.89" duration="00:00:17" routeLength="194.90" waitingTime="00:00:00" waitingCount="0" stopTime="00:00:00" timeLoss="00:00:02.19" rerouteNo="0" devices="tripinfo_trip_0 routing_trip_0" vType="DEFAULT_VEHTYPE" speedFactor="1.00" vaporized=""/>
</tripinfos>
