<?xml version="1.0"?>

<!-- generated on 03/18/10 13:43:31 by SUMO sumo Version dev-SVN-r8460
<configuration>

    <input>
        <net-file value="net.net.xml"/>
        <route-files value="input_routes.rou.xml"/>
    </input>

    <output>
        <vehroute-output value="vehroutes.xml"/>
    </output>

    <report>
        <no-duration-log value="true"/>
        <no-step-log value="true"/>
    </report>

</configuration>
-->

<routes>
    <vehicle id="veh0" depart="1" arrival="38.00">
        <route edges="in1 1to2 out2"/>
    </vehicle>

    <vehicle id="veh1" depart="2" arrival="39.00">
        <route edges="in2 2to1 out1"/>
    </vehicle>

</routes>
