<?xml version="1.0" encoding="UTF-8"?>

<!-- generated on 2025-10-09T21:49:44.760324+01:00 by Eclipse SUMO sumo v1_24_0+1329-e45c39789b9
This data file and the accompanying materials
are made available under the terms of the Eclipse Public License v2.0
which accompanies this distribution, and is available at
http://www.eclipse.org/legal/epl-v20.html
This file may also be made available under the following Secondary
Licenses when the conditions for such availability set forth in the Eclipse
Public License 2.0 are satisfied: GNU General Public License, version 2
or later which is available at
https://www.gnu.org/licenses/old-licenses/gpl-2.0-standalone.html
SPDX-License-Identifier: EPL-2.0 OR GPL-2.0-or-later
<sumoConfiguration xmlns:xsi="http://www.w3.org/2001/XMLSchema-instance" xsi:noNamespaceSchemaLocation="http://sumo.dlr.de/xsd/sumoConfiguration.xsd">

    <input>
        <net-file value="net.net.xml"/>
        <route-files value="input_routes.rou.xml"/>
    </input>

    <output>
        <write-license value="true"/>
        <fcd-output value="fcd.xml"/>
    </output>

    <processing>
        <default.speeddev value="0"/>
        <pedestrian.model value="striping"/>
    </processing>

    <report>
        <xml-validation value="never"/>
        <no-step-log value="true"/>
    </report>

</sumoConfiguration>
-->

<fcd-export xmlns:xsi="http://www.w3.org/2001/XMLSchema-instance" xsi:noNamespaceSchemaLocation="http://sumo.dlr.de/xsd/fcd_file.xsd">
    <timestep time="0.00">
        <person id="p_1" x="116.70" y="93.28" angle="270.00" type="DEFAULT_PEDTYPE" speed="0.00" pos="10.00" edge="CE" slope="0.00"/>
        <person id="p_0" x="83.30" y="91.36" angle="90.00" type="DEFAULT_PEDTYPE" speed="0.00" pos="83.30" edge="WC" slope="0.00"/>
    </timestep>
    <timestep time="1.00">
        <person id="p_1" x="115.51" y="93.28" angle="270.00" type="DEFAULT_PEDTYPE" speed="1.19" pos="8.81" edge="CE" slope="0.00"/>
        <person id="p_0" x="84.44" y="91.36" angle="90.00" type="DEFAULT_PEDTYPE" speed="1.14" pos="84.44" edge="WC" slope="0.00"/>
    </timestep>
    <timestep time="2.00">
        <person id="p_1" x="114.26" y="93.28" angle="270.00" type="DEFAULT_PEDTYPE" speed="1.25" pos="7.56" edge="CE" slope="0.00"/>
        <person id="p_0" x="85.82" y="91.36" angle="90.00" type="DEFAULT_PEDTYPE" speed="1.38" pos="85.82" edge="WC" slope="0.00"/>
    </timestep>
    <timestep time="3.00">
        <person id="p_1" x="112.88" y="93.28" angle="270.00" type="DEFAULT_PEDTYPE" speed="1.38" pos="6.18" edge="CE" slope="0.00"/>
        <person id="p_0" x="87.04" y="91.36" angle="90.00" type="DEFAULT_PEDTYPE" speed="1.23" pos="87.04" edge="WC" slope="0.00"/>
    </timestep>
    <timestep time="4.00">
        <person id="p_1" x="111.56" y="93.28" angle="270.00" type="DEFAULT_PEDTYPE" speed="1.32" pos="4.86" edge="CE" slope="0.00"/>
        <person id="p_0" x="88.23" y="91.36" angle="90.00" type="DEFAULT_PEDTYPE" speed="1.18" pos="88.23" edge="WC" slope="0.00"/>
    </timestep>
    <timestep time="5.00">
        <person id="p_1" x="110.38" y="93.28" angle="270.00" type="DEFAULT_PEDTYPE" speed="1.18" pos="3.68" edge="CE" slope="0.00"/>
        <person id="p_0" x="89.46" y="91.36" angle="90.00" type="DEFAULT_PEDTYPE" speed="1.24" pos="89.46" edge="WC" slope="0.00"/>
    </timestep>
    <timestep time="6.00">
        <person id="p_1" x="109.18" y="93.28" angle="270.00" type="DEFAULT_PEDTYPE" speed="1.20" pos="2.48" edge="CE" slope="0.00"/>
        <person id="p_0" x="90.85" y="91.36" angle="90.00" type="DEFAULT_PEDTYPE" speed="1.39" pos="90.85" edge="WC" slope="0.00"/>
    </timestep>
    <timestep time="7.00">
        <person id="p_1" x="107.91" y="93.28" angle="270.00" type="DEFAULT_PEDTYPE" speed="1.26" pos="1.21" edge="CE" slope="0.00"/>
        <person id="p_0" x="92.11" y="91.36" angle="90.00" type="DEFAULT_PEDTYPE" speed="1.26" pos="92.11" edge="WC" slope="0.00"/>
    </timestep>
    <timestep time="8.00">
        <person id="p_1" x="106.60" y="93.28" angle="270.00" type="DEFAULT_PEDTYPE" speed="1.32" pos="4.73" edge=":C_w0" slope="0.00"/>
        <person id="p_0" x="93.34" y="91.36" angle="90.00" type="DEFAULT_PEDTYPE" speed="1.23" pos="0.04" edge=":C_w1" slope="0.00"/>
    </timestep>
    <timestep time="9.00">
        <person id="p_1" x="104.23" y="92.38" angle="212.01" type="DEFAULT_PEDTYPE" speed="1.15" pos="3.59" edge=":C_w0" slope="0.00"/>
        <person id="p_0" x="93.90" y="91.50" angle="152.37" type="DEFAULT_PEDTYPE" speed="1.37" pos="1.41" edge=":C_w1" slope="0.00"/>
    </timestep>
    <timestep time="10.00">
        <person id="p_1" x="104.06" y="91.06" angle="187.15" type="DEFAULT_PEDTYPE" speed="1.20" pos="2.39" edge=":C_w0" slope="0.00"/>
        <person id="p_0" x="95.00" y="90.61" angle="129.22" type="DEFAULT_PEDTYPE" speed="1.30" pos="2.71" edge=":C_w1" slope="0.00"/>
    </timestep>
    <timestep time="11.00">
        <person id="p_1" x="103.47" y="89.96" angle="208.14" type="DEFAULT_PEDTYPE" speed="1.25" pos="1.14" edge=":C_w0" slope="0.00"/>
        <person id="p_0" x="95.70" y="89.48" angle="176.49" type="DEFAULT_PEDTYPE" speed="1.38" pos="4.09" edge=":C_w1" slope="0.00"/>
    </timestep>
    <timestep time="12.00">
        <person id="p_0" x="95.20" y="88.17" angle="180.00" type="DEFAULT_PEDTYPE" speed="1.30" pos="0.18" edge="-SC" slope="0.00"/>
        <person id="p_1" x="103.52" y="88.28" angle="180.00" type="DEFAULT_PEDTYPE" speed="1.21" pos="88.28" edge="SC" slope="0.00"/>
    </timestep>
    <timestep time="13.00">
        <person id="p_0" x="95.20" y="87.04" angle="180.00" type="DEFAULT_PEDTYPE" speed="1.13" pos="1.31" edge="-SC" slope="0.00"/>
        <person id="p_1" x="103.52" y="87.12" angle="180.00" type="DEFAULT_PEDTYPE" speed="1.16" pos="87.12" edge="SC" slope="0.00"/>
    </timestep>
    <timestep time="14.00">
        <person id="p_0" x="95.20" y="85.90" angle="180.00" type="DEFAULT_PEDTYPE" speed="1.14" pos="2.45" edge="-SC" slope="0.00"/>
        <person id="p_1" x="103.52" y="85.84" angle="180.00" type="DEFAULT_PEDTYPE" speed="1.28" pos="85.84" edge="SC" slope="0.00"/>
    </timestep>
    <timestep time="15.00">
        <person id="p_0" x="95.20" y="84.66" angle="180.00" type="DEFAULT_PEDTYPE" speed="1.24" pos="3.69" edge="-SC" slope="0.00"/>
        <person id="p_1" x="103.52" y="84.52" angle="180.00" type="DEFAULT_PEDTYPE" speed="1.32" pos="84.52" edge="SC" slope="0.00"/>
    </timestep>
    <timestep time="16.00">
        <person id="p_0" x="95.20" y="83.28" angle="180.00" type="DEFAULT_PEDTYPE" speed="1.38" pos="5.07" edge="-SC" slope="0.00"/>
        <person id="p_1" x="103.52" y="83.21" angle="180.00" type="DEFAULT_PEDTYPE" speed="1.31" pos="83.21" edge="SC" slope="0.00"/>
    </timestep>
    <timestep time="17.00">
        <person id="p_0" x="95.20" y="82.11" angle="180.00" type="DEFAULT_PEDTYPE" speed="1.18" pos="6.24" edge="-SC" slope="0.00"/>
        <person id="p_1" x="103.52" y="81.87" angle="180.00" type="DEFAULT_PEDTYPE" speed="1.34" pos="81.87" edge="SC" slope="0.00"/>
    </timestep>
    <timestep time="18.00">
        <person id="p_0" x="95.20" y="80.98" angle="180.00" type="DEFAULT_PEDTYPE" speed="1.12" pos="7.37" edge="-SC" slope="0.00"/>
        <person id="p_1" x="103.52" y="80.49" angle="180.00" type="DEFAULT_PEDTYPE" speed="1.38" pos="80.49" edge="SC" slope="0.00"/>
    </timestep>
    <timestep time="19.00">
        <person id="p_0" x="95.20" y="79.79" angle="180.00" type="DEFAULT_PEDTYPE" speed="1.20" pos="8.56" edge="-SC" slope="0.00"/>
        <person id="p_1" x="103.52" y="79.19" angle="180.00" type="DEFAULT_PEDTYPE" speed="1.30" pos="79.19" edge="SC" slope="0.00"/>
    </timestep>
    <timestep time="20.00">
        <person id="p_0" x="95.20" y="78.43" angle="180.00" type="DEFAULT_PEDTYPE" speed="1.35" pos="9.92" edge="-SC" slope="0.00"/>
        <person id="p_1" x="103.52" y="77.84" angle="180.00" type="DEFAULT_PEDTYPE" speed="1.35" pos="77.84" edge="SC" slope="0.00"/>
    </timestep>
    <timestep time="21.00">
        <person id="p_0" x="95.20" y="77.16" angle="180.00" type="DEFAULT_PEDTYPE" speed="1.27" pos="11.19" edge="-SC" slope="0.00"/>
        <person id="p_1" x="103.52" y="76.71" angle="180.00" type="DEFAULT_PEDTYPE" speed="1.12" pos="76.71" edge="SC" slope="0.00"/>
    </timestep>
    <timestep time="22.00">
        <person id="p_0" x="95.20" y="75.84" angle="180.00" type="DEFAULT_PEDTYPE" speed="1.32" pos="12.51" edge="-SC" slope="0.00"/>
        <person id="p_1" x="103.52" y="75.39" angle="180.00" type="DEFAULT_PEDTYPE" speed="1.33" pos="75.39" edge="SC" slope="0.00"/>
    </timestep>
    <timestep time="23.00">
        <person id="p_0" x="95.20" y="74.50" angle="180.00" type="DEFAULT_PEDTYPE" speed="1.34" pos="13.85" edge="-SC" slope="0.00"/>
        <person id="p_1" x="103.52" y="74.16" angle="180.00" type="DEFAULT_PEDTYPE" speed="1.23" pos="74.16" edge="SC" slope="0.00"/>
    </timestep>
    <timestep time="24.00">
        <person id="p_0" x="95.20" y="73.18" angle="180.00" type="DEFAULT_PEDTYPE" speed="1.32" pos="15.17" edge="-SC" slope="0.00"/>
        <person id="p_1" x="103.52" y="72.99" angle="180.00" type="DEFAULT_PEDTYPE" speed="1.16" pos="72.99" edge="SC" slope="0.00"/>
    </timestep>
    <timestep time="25.00">
        <person id="p_0" x="95.20" y="71.81" angle="180.00" type="DEFAULT_PEDTYPE" speed="1.36" pos="16.54" edge="-SC" slope="0.00"/>
        <person id="p_1" x="103.52" y="71.79" angle="180.00" type="DEFAULT_PEDTYPE" speed="1.20" pos="71.79" edge="SC" slope="0.00"/>
    </timestep>
    <timestep time="26.00">
        <person id="p_0" x="95.20" y="70.62" angle="180.00" type="DEFAULT_PEDTYPE" speed="1.19" pos="17.73" edge="-SC" slope="0.00"/>
        <person id="p_1" x="103.52" y="70.57" angle="180.00" type="DEFAULT_PEDTYPE" speed="1.22" pos="70.57" edge="SC" slope="0.00"/>
    </timestep>
    <timestep time="27.00">
        <person id="p_0" x="95.20" y="69.43" angle="180.00" type="DEFAULT_PEDTYPE" speed="1.20" pos="18.92" edge="-SC" slope="0.00"/>
        <person id="p_1" x="103.52" y="69.44" angle="180.00" type="DEFAULT_PEDTYPE" speed="1.13" pos="69.44" edge="SC" slope="0.00"/>
    </timestep>
    <timestep time="28.00">
        <person id="p_0" x="95.20" y="68.31" angle="180.00" type="DEFAULT_PEDTYPE" speed="1.12" pos="20.04" edge="-SC" slope="0.00"/>
        <person id="p_1" x="103.52" y="68.13" angle="180.00" type="DEFAULT_PEDTYPE" speed="1.30" pos="68.13" edge="SC" slope="0.00"/>
    </timestep>
    <timestep time="29.00">
        <person id="p_0" x="95.20" y="67.05" angle="180.00" type="DEFAULT_PEDTYPE" speed="1.25" pos="21.30" edge="-SC" slope="0.00"/>
        <person id="p_1" x="103.52" y="66.91" angle="180.00" type="DEFAULT_PEDTYPE" speed="1.23" pos="66.91" edge="SC" slope="0.00"/>
    </timestep>
    <timestep time="30.00">
        <person id="p_0" x="95.20" y="65.71" angle="180.00" type="DEFAULT_PEDTYPE" speed="1.34" pos="22.64" edge="-SC" slope="0.00"/>
        <person id="p_1" x="103.52" y="65.78" angle="180.00" type="DEFAULT_PEDTYPE" speed="1.12" pos="65.78" edge="SC" slope="0.00"/>
    </timestep>
    <timestep time="31.00">
        <person id="p_0" x="95.20" y="64.37" angle="180.00" type="DEFAULT_PEDTYPE" speed="1.34" pos="23.98" edge="-SC" slope="0.00"/>
        <person id="p_1" x="103.52" y="64.57" angle="180.00" type="DEFAULT_PEDTYPE" speed="1.21" pos="64.57" edge="SC" slope="0.00"/>
    </timestep>
    <timestep time="32.00">
        <person id="p_0" x="95.20" y="63.03" angle="180.00" type="DEFAULT_PEDTYPE" speed="1.35" pos="25.32" edge="-SC" slope="0.00"/>
        <person id="p_1" x="103.52" y="63.19" angle="180.00" type="DEFAULT_PEDTYPE" speed="1.38" pos="63.19" edge="SC" slope="0.00"/>
    </timestep>
    <timestep time="33.00">
        <person id="p_0" x="95.20" y="61.72" angle="180.00" type="DEFAULT_PEDTYPE" speed="1.31" pos="26.63" edge="-SC" slope="0.00"/>
        <person id="p_1" x="103.52" y="61.95" angle="180.00" type="DEFAULT_PEDTYPE" speed="1.24" pos="61.95" edge="SC" slope="0.00"/>
    </timestep>
    <timestep time="34.00">
        <person id="p_0" x="95.20" y="60.58" angle="180.00" type="DEFAULT_PEDTYPE" speed="1.13" pos="27.77" edge="-SC" slope="0.00"/>
        <person id="p_1" x="103.52" y="60.58" angle="180.00" type="DEFAULT_PEDTYPE" speed="1.37" pos="60.58" edge="SC" slope="0.00"/>
    </timestep>
    <timestep time="35.00">
        <person id="p_0" x="95.20" y="59.25" angle="180.00" type="DEFAULT_PEDTYPE" speed="1.34" pos="29.10" edge="-SC" slope="0.00"/>
        <person id="p_1" x="103.52" y="59.47" angle="180.00" type="DEFAULT_PEDTYPE" speed="1.11" pos="59.47" edge="SC" slope="0.00"/>
    </timestep>
    <timestep time="36.00">
        <person id="p_0" x="95.20" y="57.94" angle="180.00" type="DEFAULT_PEDTYPE" speed="1.30" pos="30.41" edge="-SC" slope="0.00"/>
        <person id="p_1" x="103.52" y="58.18" angle="180.00" type="DEFAULT_PEDTYPE" speed="1.29" pos="58.18" edge="SC" slope="0.00"/>
    </timestep>
    <timestep time="37.00">
        <person id="p_0" x="95.20" y="56.58" angle="180.00" type="DEFAULT_PEDTYPE" speed="1.36" pos="31.77" edge="-SC" slope="0.00"/>
        <person id="p_1" x="103.52" y="56.95" angle="180.00" type="DEFAULT_PEDTYPE" speed="1.23" pos="56.95" edge="SC" slope="0.00"/>
    </timestep>
    <timestep time="38.00">
        <person id="p_0" x="95.20" y="55.25" angle="180.00" type="DEFAULT_PEDTYPE" speed="1.33" pos="33.10" edge="-SC" slope="0.00"/>
        <person id="p_1" x="103.52" y="55.61" angle="180.00" type="DEFAULT_PEDTYPE" speed="1.34" pos="55.61" edge="SC" slope="0.00"/>
    </timestep>
    <timestep time="39.00">
        <person id="p_0" x="95.20" y="53.87" angle="180.00" type="DEFAULT_PEDTYPE" speed="1.38" pos="34.48" edge="-SC" slope="0.00"/>
        <person id="p_1" x="103.52" y="54.24" angle="180.00" type="DEFAULT_PEDTYPE" speed="1.37" pos="54.24" edge="SC" slope="0.00"/>
    </timestep>
    <timestep time="40.00">
        <person id="p_0" x="95.20" y="52.68" angle="180.00" type="DEFAULT_PEDTYPE" speed="1.19" pos="35.67" edge="-SC" slope="0.00"/>
        <person id="p_1" x="103.52" y="52.95" angle="180.00" type="DEFAULT_PEDTYPE" speed="1.29" pos="52.95" edge="SC" slope="0.00"/>
    </timestep>
    <timestep time="41.00">
        <person id="p_0" x="95.20" y="51.37" angle="180.00" type="DEFAULT_PEDTYPE" speed="1.31" pos="36.98" edge="-SC" slope="0.00"/>
        <person id="p_1" x="103.52" y="51.62" angle="180.00" type="DEFAULT_PEDTYPE" speed="1.33" pos="51.62" edge="SC" slope="0.00"/>
    </timestep>
    <timestep time="42.00">
        <person id="p_0" x="95.20" y="50.17" angle="180.00" type="DEFAULT_PEDTYPE" speed="1.20" pos="38.18" edge="-SC" slope="0.00"/>
        <person id="p_1" x="103.52" y="50.35" angle="180.00" type="DEFAULT_PEDTYPE" speed="1.27" pos="50.35" edge="SC" slope="0.00"/>
    </timestep>
    <timestep time="43.00">
        <person id="p_0" x="95.20" y="48.96" angle="180.00" type="DEFAULT_PEDTYPE" speed="1.22" pos="39.39" edge="-SC" slope="0.00"/>
        <person id="p_1" x="103.52" y="49.07" angle="180.00" type="DEFAULT_PEDTYPE" speed="1.28" pos="49.07" edge="SC" slope="0.00"/>
    </timestep>
    <timestep time="44.00">
        <person id="p_0" x="95.20" y="47.71" angle="180.00" type="DEFAULT_PEDTYPE" speed="1.25" pos="40.64" edge="-SC" slope="0.00"/>
        <person id="p_1" x="103.52" y="47.91" angle="180.00" type="DEFAULT_PEDTYPE" speed="1.16" pos="47.91" edge="SC" slope="0.00"/>
    </timestep>
    <timestep time="45.00">
        <person id="p_0" x="95.20" y="46.48" angle="180.00" type="DEFAULT_PEDTYPE" speed="1.23" pos="41.87" edge="-SC" slope="0.00"/>
        <person id="p_1" x="103.52" y="46.63" angle="180.00" type="DEFAULT_PEDTYPE" speed="1.27" pos="46.63" edge="SC" slope="0.00"/>
    </timestep>
    <timestep time="46.00">
        <person id="p_0" x="95.20" y="45.20" angle="180.00" type="DEFAULT_PEDTYPE" speed="1.29" pos="43.15" edge="-SC" slope="0.00"/>
        <person id="p_1" x="103.52" y="45.52" angle="180.00" type="DEFAULT_PEDTYPE" speed="1.12" pos="45.52" edge="SC" slope="0.00"/>
    </timestep>
    <timestep time="47.00">
        <person id="p_0" x="95.20" y="43.81" angle="180.00" type="DEFAULT_PEDTYPE" speed="1.38" pos="44.54" edge="-SC" slope="0.00"/>
        <person id="p_1" x="103.52" y="44.21" angle="180.00" type="DEFAULT_PEDTYPE" speed="1.30" pos="44.21" edge="SC" slope="0.00"/>
    </timestep>
    <timestep time="48.00">
        <person id="p_0" x="95.20" y="42.45" angle="180.00" type="DEFAULT_PEDTYPE" speed="1.36" pos="45.90" edge="-SC" slope="0.00"/>
        <person id="p_1" x="103.52" y="43.07" angle="180.00" type="DEFAULT_PEDTYPE" speed="1.15" pos="43.07" edge="SC" slope="0.00"/>
    </timestep>
    <timestep time="49.00">
        <person id="p_0" x="95.20" y="41.24" angle="180.00" type="DEFAULT_PEDTYPE" speed="1.22" pos="47.11" edge="-SC" slope="0.00"/>
        <person id="p_1" x="103.52" y="41.93" angle="180.00" type="DEFAULT_PEDTYPE" speed="1.13" pos="41.93" edge="SC" slope="0.00"/>
    </timestep>
    <timestep time="50.00">
        <person id="p_0" x="95.20" y="39.99" angle="180.00" type="DEFAULT_PEDTYPE" speed="1.25" pos="48.36" edge="-SC" slope="0.00"/>
        <person id="p_1" x="103.52" y="40.66" angle="180.00" type="DEFAULT_PEDTYPE" speed="1.27" pos="40.66" edge="SC" slope="0.00"/>
    </timestep>
    <timestep time="51.00">
        <person id="p_0" x="95.20" y="38.80" angle="180.00" type="DEFAULT_PEDTYPE" speed="1.19" pos="49.55" edge="-SC" slope="0.00"/>
        <person id="p_1" x="103.52" y="39.40" angle="180.00" type="DEFAULT_PEDTYPE" speed="1.26" pos="39.40" edge="SC" slope="0.00"/>
    </timestep>
    <timestep time="52.00">
        <person id="p_0" x="95.20" y="37.65" angle="180.00" type="DEFAULT_PEDTYPE" speed="1.15" pos="50.70" edge="-SC" slope="0.00"/>
        <person id="p_1" x="103.52" y="38.17" angle="180.00" type="DEFAULT_PEDTYPE" speed="1.23" pos="38.17" edge="SC" slope="0.00"/>
    </timestep>
    <timestep time="53.00">
        <person id="p_0" x="95.20" y="36.53" angle="180.00" type="DEFAULT_PEDTYPE" speed="1.12" pos="51.82" edge="-SC" slope="0.00"/>
        <person id="p_1" x="103.52" y="36.86" angle="180.00" type="DEFAULT_PEDTYPE" speed="1.31" pos="36.86" edge="SC" slope="0.00"/>
    </timestep>
    <timestep time="54.00">
        <person id="p_0" x="95.20" y="35.26" angle="180.00" type="DEFAULT_PEDTYPE" speed="1.27" pos="53.09" edge="-SC" slope="0.00"/>
        <person id="p_1" x="103.52" y="35.57" angle="180.00" type="DEFAULT_PEDTYPE" speed="1.29" pos="35.57" edge="SC" slope="0.00"/>
    </timestep>
    <timestep time="55.00">
        <person id="p_0" x="95.20" y="34.06" angle="180.00" type="DEFAULT_PEDTYPE" speed="1.19" pos="54.29" edge="-SC" slope="0.00"/>
        <person id="p_1" x="103.52" y="34.21" angle="180.00" type="DEFAULT_PEDTYPE" speed="1.36" pos="34.21" edge="SC" slope="0.00"/>
    </timestep>
    <timestep time="56.00">
        <person id="p_0" x="95.20" y="32.80" angle="180.00" type="DEFAULT_PEDTYPE" speed="1.26" pos="55.55" edge="-SC" slope="0.00"/>
        <person id="p_1" x="103.52" y="33.01" angle="180.00" type="DEFAULT_PEDTYPE" speed="1.21" pos="33.01" edge="SC" slope="0.00"/>
    </timestep>
    <timestep time="57.00">
        <person id="p_0" x="95.20" y="31.63" angle="180.00" type="DEFAULT_PEDTYPE" speed="1.17" pos="56.72" edge="-SC" slope="0.00"/>
        <person id="p_1" x="103.52" y="31.69" angle="180.00" type="DEFAULT_PEDTYPE" speed="1.31" pos="31.69" edge="SC" slope="0.00"/>
    </timestep>
    <timestep time="58.00">
        <person id="p_0" x="95.20" y="30.44" angle="180.00" type="DEFAULT_PEDTYPE" speed="1.19" pos="57.91" edge="-SC" slope="0.00"/>
        <person id="p_1" x="103.52" y="30.34" angle="180.00" type="DEFAULT_PEDTYPE" speed="1.35" pos="30.34" edge="SC" slope="0.00"/>
    </timestep>
    <timestep time="59.00">
        <person id="p_0" x="95.20" y="29.25" angle="180.00" type="DEFAULT_PEDTYPE" speed="1.19" pos="59.10" edge="-SC" slope="0.00"/>
        <person id="p_1" x="103.52" y="28.99" angle="180.00" type="DEFAULT_PEDTYPE" speed="1.35" pos="28.99" edge="SC" slope="0.00"/>
    </timestep>
    <timestep time="60.00">
        <person id="p_0" x="95.20" y="28.10" angle="180.00" type="DEFAULT_PEDTYPE" speed="1.14" pos="60.25" edge="-SC" slope="0.00"/>
        <person id="p_1" x="103.52" y="27.70" angle="180.00" type="DEFAULT_PEDTYPE" speed="1.29" pos="27.70" edge="SC" slope="0.00"/>
    </timestep>
    <timestep time="61.00">
        <person id="p_0" x="95.20" y="26.85" angle="180.00" type="DEFAULT_PEDTYPE" speed="1.26" pos="61.50" edge="-SC" slope="0.00"/>
        <person id="p_1" x="103.52" y="26.33" angle="180.00" type="DEFAULT_PEDTYPE" speed="1.38" pos="26.33" edge="SC" slope="0.00"/>
    </timestep>
    <timestep time="62.00">
        <person id="p_0" x="95.20" y="25.57" angle="180.00" type="DEFAULT_PEDTYPE" speed="1.28" pos="62.78" edge="-SC" slope="0.00"/>
        <person id="p_1" x="103.52" y="25.13" angle="180.00" type="DEFAULT_PEDTYPE" speed="1.20" pos="25.13" edge="SC" slope="0.00"/>
    </timestep>
    <timestep time="63.00">
        <person id="p_0" x="95.20" y="24.45" angle="180.00" type="DEFAULT_PEDTYPE" speed="1.12" pos="63.90" edge="-SC" slope="0.00"/>
        <person id="p_1" x="103.52" y="23.97" angle="180.00" type="DEFAULT_PEDTYPE" speed="1.15" pos="23.97" edge="SC" slope="0.00"/>
    </timestep>
    <timestep time="64.00">
        <person id="p_0" x="95.20" y="23.10" angle="180.00" type="DEFAULT_PEDTYPE" speed="1.35" pos="65.25" edge="-SC" slope="0.00"/>
        <person id="p_1" x="103.52" y="22.83" angle="180.00" type="DEFAULT_PEDTYPE" speed="1.14" pos="22.83" edge="SC" slope="0.00"/>
    </timestep>
    <timestep time="65.00">
        <person id="p_0" x="95.20" y="21.81" angle="180.00" type="DEFAULT_PEDTYPE" speed="1.29" pos="66.54" edge="-SC" slope="0.00"/>
        <person id="p_1" x="103.52" y="21.63" angle="180.00" type="DEFAULT_PEDTYPE" speed="1.20" pos="21.63" edge="SC" slope="0.00"/>
    </timestep>
    <timestep time="66.00">
        <person id="p_0" x="95.20" y="20.54" angle="180.00" type="DEFAULT_PEDTYPE" speed="1.27" pos="67.81" edge="-SC" slope="0.00"/>
        <person id="p_1" x="103.52" y="20.41" angle="180.00" type="DEFAULT_PEDTYPE" speed="1.23" pos="20.41" edge="SC" slope="0.00"/>
    </timestep>
    <timestep time="67.00">
        <person id="p_0" x="95.20" y="19.23" angle="180.00" type="DEFAULT_PEDTYPE" speed="1.31" pos="69.12" edge="-SC" slope="0.00"/>
        <person id="p_1" x="103.52" y="19.12" angle="180.00" type="DEFAULT_PEDTYPE" speed="1.28" pos="19.12" edge="SC" slope="0.00"/>
    </timestep>
    <timestep time="68.00">
        <person id="p_0" x="95.20" y="18.03" angle="180.00" type="DEFAULT_PEDTYPE" speed="1.20" pos="70.32" edge="-SC" slope="0.00"/>
        <person id="p_1" x="103.52" y="17.90" angle="180.00" type="DEFAULT_PEDTYPE" speed="1.22" pos="17.90" edge="SC" slope="0.00"/>
    </timestep>
    <timestep time="69.00">
        <person id="p_0" x="95.20" y="16.80" angle="180.00" type="DEFAULT_PEDTYPE" speed="1.23" pos="71.55" edge="-SC" slope="0.00"/>
        <person id="p_1" x="103.52" y="16.54" angle="180.00" type="DEFAULT_PEDTYPE" speed="1.36" pos="16.54" edge="SC" slope="0.00"/>
    </timestep>
    <timestep time="70.00">
        <person id="p_0" x="95.20" y="15.65" angle="180.00" type="DEFAULT_PEDTYPE" speed="1.15" pos="72.70" edge="-SC" slope="0.00"/>
        <person id="p_1" x="103.52" y="15.33" angle="180.00" type="DEFAULT_PEDTYPE" speed="1.21" pos="15.33" edge="SC" slope="0.00"/>
    </timestep>
    <timestep time="71.00">
        <person id="p_0" x="95.20" y="14.49" angle="180.00" type="DEFAULT_PEDTYPE" speed="1.16" pos="73.86" edge="-SC" slope="0.00"/>
        <person id="p_1" x="103.52" y="14.20" angle="180.00" type="DEFAULT_PEDTYPE" speed="1.13" pos="14.20" edge="SC" slope="0.00"/>
    </timestep>
    <timestep time="72.00">
        <person id="p_0" x="95.20" y="13.25" angle="180.00" type="DEFAULT_PEDTYPE" speed="1.24" pos="75.10" edge="-SC" slope="0.00"/>
        <person id="p_1" x="103.52" y="12.81" angle="180.00" type="DEFAULT_PEDTYPE" speed="1.38" pos="12.81" edge="SC" slope="0.00"/>
    </timestep>
    <timestep time="73.00">
        <person id="p_0" x="95.20" y="12.14" angle="180.00" type="DEFAULT_PEDTYPE" speed="1.12" pos="76.21" edge="-SC" slope="0.00"/>
        <person id="p_1" x="103.52" y="11.67" angle="180.00" type="DEFAULT_PEDTYPE" speed="1.14" pos="11.67" edge="SC" slope="0.00"/>
    </timestep>
    <timestep time="74.00">
        <person id="p_0" x="95.20" y="10.88" angle="180.00" type="DEFAULT_PEDTYPE" speed="1.25" pos="77.47" edge="-SC" slope="0.00"/>
        <person id="p_1" x="103.52" y="10.53" angle="180.00" type="DEFAULT_PEDTYPE" speed="1.14" pos="10.53" edge="SC" slope="0.00"/>
    </timestep>
    <timestep time="75.00">
        <person id="p_0" x="95.20" y="9.54" angle="180.00" type="DEFAULT_PEDTYPE" speed="1.34" pos="78.81" edge="-SC" slope="0.00"/>
        <person id="p_1" x="103.52" y="9.24" angle="180.00" type="DEFAULT_PEDTYPE" speed="1.29" pos="9.24" edge="SC" slope="0.00"/>
    </timestep>
    <timestep time="76.00">
        <person id="p_0" x="95.20" y="8.37" angle="180.00" type="DEFAULT_PEDTYPE" speed="1.17" pos="79.98" edge="-SC" slope="0.00"/>
        <person id="p_1" x="103.52" y="7.98" angle="180.00" type="DEFAULT_PEDTYPE" speed="1.26" pos="7.98" edge="SC" slope="0.00"/>
    </timestep>
    <timestep time="77.00">
        <person id="p_0" x="95.20" y="7.08" angle="180.00" type="DEFAULT_PEDTYPE" speed="1.29" pos="81.27" edge="-SC" slope="0.00"/>
        <person id="p_1" x="103.52" y="6.59" angle="180.00" type="DEFAULT_PEDTYPE" speed="1.39" pos="6.59" edge="SC" slope="0.00"/>
    </timestep>
    <timestep time="78.00">
        <person id="p_0" x="95.20" y="5.87" angle="180.00" type="DEFAULT_PEDTYPE" speed="1.21" pos="82.48" edge="-SC" slope="0.00"/>
        <person id="p_1" x="103.52" y="5.46" angle="180.00" type="DEFAULT_PEDTYPE" speed="1.13" pos="5.46" edge="SC" slope="0.00"/>
    </timestep>
    <timestep time="79.00">
        <person id="p_0" x="95.20" y="4.49" angle="180.00" type="DEFAULT_PEDTYPE" speed="1.39" pos="83.86" edge="-SC" slope="0.00"/>
        <person id="p_1" x="103.52" y="4.21" angle="180.00" type="DEFAULT_PEDTYPE" speed="1.25" pos="4.21" edge="SC" slope="0.00"/>
    </timestep>
    <timestep time="80.00">
        <person id="p_0" x="95.20" y="3.35" angle="180.00" type="DEFAULT_PEDTYPE" speed="1.14" pos="85.00" edge="-SC" slope="0.00"/>
        <person id="p_1" x="103.52" y="2.93" angle="180.00" type="DEFAULT_PEDTYPE" speed="1.27" pos="2.93" edge="SC" slope="0.00"/>
    </timestep>
    <timestep time="81.00">
        <person id="p_0" x="95.20" y="1.99" angle="180.00" type="DEFAULT_PEDTYPE" speed="1.36" pos="86.36" edge="-SC" slope="0.00"/>
        <person id="p_1" x="103.52" y="1.78" angle="180.00" type="DEFAULT_PEDTYPE" speed="1.15" pos="1.78" edge="SC" slope="0.00"/>
    </timestep>
    <timestep time="82.00">
        <person id="p_0" x="95.20" y="0.83" angle="180.00" type="DEFAULT_PEDTYPE" speed="1.16" pos="87.52" edge="-SC" slope="0.00"/>
        <person id="p_1" x="103.52" y="0.50" angle="180.00" type="DEFAULT_PEDTYPE" speed="1.28" pos="0.50" edge="SC" slope="0.00"/>
    </timestep>
    <timestep time="83.00">
        <person id="p_0" x="95.20" y="-0.28" angle="180.00" type="DEFAULT_PEDTYPE" speed="1.11" pos="0.28" edge=":S_w0" slope="0.00"/>
        <person id="p_1" x="103.52" y="-0.75" angle="180.00" type="DEFAULT_PEDTYPE" speed="1.25" pos="9.65" edge=":S_w0" slope="0.00"/>
    </timestep>
    <timestep time="84.00">
        <person id="p_0" x="96.21" y="-1.60" angle="90.00" type="DEFAULT_PEDTYPE" speed="1.13" pos="1.41" edge=":S_w0" slope="0.00"/>
        <person id="p_1" x="103.28" y="-0.32" angle="270.00" type="DEFAULT_PEDTYPE" speed="1.17" pos="8.48" edge=":S_w0" slope="0.00"/>
    </timestep>
    <timestep time="85.00">
        <person id="p_0" x="97.47" y="-1.60" angle="90.00" type="DEFAULT_PEDTYPE" speed="1.26" pos="2.67" edge=":S_w0" slope="0.00"/>
        <person id="p_1" x="102.12" y="-0.32" angle="270.00" type="DEFAULT_PEDTYPE" speed="1.15" pos="7.32" edge=":S_w0" slope="0.00"/>
    </timestep>
    <timestep time="86.00">
        <person id="p_0" x="98.77" y="-1.60" angle="90.00" type="DEFAULT_PEDTYPE" speed="1.30" pos="3.97" edge=":S_w0" slope="0.00"/>
        <person id="p_1" x="100.79" y="-0.32" angle="270.00" type="DEFAULT_PEDTYPE" speed="1.33" pos="5.99" edge=":S_w0" slope="0.00"/>
    </timestep>
    <timestep time="87.00">
        <person id="p_1" x="99.53" y="-0.32" angle="270.00" type="DEFAULT_PEDTYPE" speed="1.26" pos="4.73" edge=":S_w0" slope="0.00"/>
        <person id="p_0" x="100.11" y="-1.60" angle="90.00" type="DEFAULT_PEDTYPE" speed="1.35" pos="5.31" edge=":S_w0" slope="0.00"/>
    </timestep>
    <timestep time="88.00">
        <person id="p_1" x="98.34" y="-0.32" angle="270.00" type="DEFAULT_PEDTYPE" speed="1.19" pos="3.54" edge=":S_w0" slope="0.00"/>
        <person id="p_0" x="101.41" y="-1.60" angle="90.00" type="DEFAULT_PEDTYPE" speed="1.30" pos="6.61" edge=":S_w0" slope="0.00"/>
    </timestep>
    <timestep time="89.00">
        <person id="p_1" x="97.05" y="-0.32" angle="270.00" type="DEFAULT_PEDTYPE" speed="1.29" pos="2.25" edge=":S_w0" slope="0.00"/>
        <person id="p_0" x="102.68" y="-1.60" angle="90.00" type="DEFAULT_PEDTYPE" speed="1.27" pos="7.88" edge=":S_w0" slope="0.00"/>
    </timestep>
    <timestep time="90.00">
        <person id="p_1" x="96.48" y="-0.91" angle="0.00" type="DEFAULT_PEDTYPE" speed="1.35" pos="0.91" edge=":S_w0" slope="0.00"/>
        <person id="p_0" x="103.84" y="-1.60" angle="90.00" type="DEFAULT_PEDTYPE" speed="1.17" pos="9.04" edge=":S_w0" slope="0.00"/>
    </timestep>
    <timestep time="91.00">
        <person id="p_0" x="104.80" y="-0.13" angle="0.00" type="DEFAULT_PEDTYPE" speed="1.23" pos="10.27" edge=":S_w0" slope="0.00"/>