<?xml version="1.0" encoding="UTF-8"?>

<!-- generated on 09/21/13 00:24:44 by SUMO sumo Version dev-SVN-r14730
This data file and the accompanying materials
are made available under the terms of the Eclipse Public License v2.0
which accompanies this distribution, and is available at
http://www.eclipse.org/legal/epl-v20.html
SPDX-License-Identifier: EPL-2.0
<configuration xmlns:xsi="http://www.w3.org/2001/XMLSchema-instance" xsi:noNamespaceSchemaLocation="http://sumo.dlr.de/xsd/sumoConfiguration.xsd">

    <input>
        <net-file value="net.net.xml"/>
        <additional-files value="input_routes.rou.xml"/>
    </input>

    <output>
        <tripinfo-output value="tripinfos.xml"/>
        <bt-output value="bt.xml"/>
    </output>

    <time>
        <begin value="0"/>
        <end value="5"/>
    </time>

    <report>
        <no-duration-log value="true"/>
        <no-step-log value="true"/>
    </report>

    <communication>
        <device.btreceiver.probability value="1"/>
        <device.btreceiver.range value="50"/>
        <device.btreceiver.all-recognitions value="true"/>
        <device.btsender.probability value="1"/>
    </communication>

</configuration>
-->

<tripinfos>
</tripinfos>
