<?xml version="1.0" encoding="UTF-8"?>

<!-- generated on 10/25/16 10:22:12 by SUMO Version dev-SVN-r21767
<?xml version="1.0" encoding="UTF-8"?>

<configuration xmlns:xsi="http://www.w3.org/2001/XMLSchema-instance" xsi:noNamespaceSchemaLocation="http://sumo.dlr.de/xsd/sumoConfiguration.xsd">

    <input>
        <net-file value="net.net.xml"/>
        <additional-files value="input_routes.rou.xml,input_additional.add.xml"/>
    </input>

    <time>
        <begin value="0"/>
        <end value="150"/>
    </time>

    <report>
        <xml-validation value="never"/>
        <duration-log.disable value="true"/>
        <no-step-log value="true"/>
    </report>

    <mesoscopic>
        <mesosim value="true"/>
    </mesoscopic>

</configuration>
-->

<meandata xmlns:xsi="http://www.w3.org/2001/XMLSchema-instance" xsi:noNamespaceSchemaLocation="http://sumo.dlr.de/xsd/meandata_file.xsd">
    <interval begin="0.00" end="60.00" id="dump_60">
        <edge id="1si" sampledSeconds="16.67" traveltime="25.00" overlapTraveltime="25.30" density="1.11" occupancy="0.11" waitingTime="0.00" speed="10.00" departed="1" arrived="0" entered="0" left="1" laneChangedFrom="0" laneChangedTo="0"/>
        <edge id="4o" sampledSeconds="42.33" traveltime="50.00" overlapTraveltime="50.30" density="1.41" occupancy="0.42" waitingTime="0.00" speed="10.00" departed="0" arrived="0" entered="1" left="0" laneChangedFrom="0" laneChangedTo="0"/>
    </interval>
    <interval begin="60.00" end="120.00" id="dump_60">
        <edge id="4o" sampledSeconds="7.67" traveltime="50.00" overlapTraveltime="50.30" density="0.26" occupancy="0.08" waitingTime="0.00" speed="10.00" departed="0" arrived="1" entered="0" left="0" laneChangedFrom="0" laneChangedTo="0"/>
    </interval>
    <interval begin="120.00" end="150.00" id="dump_60"/>
</meandata>
