<?xml version="1.0" encoding="UTF-8"?>

<!-- generated on 2023-03-01 13:04:25 by Eclipse SUMO sumo Version v1_16_0+0850-438bb8b
This data file and the accompanying materials
are made available under the terms of the Eclipse Public License v2.0
which accompanies this distribution, and is available at
http://www.eclipse.org/legal/epl-v20.html
This file may also be made available under the following Secondary
Licenses when the conditions for such availability set forth in the Eclipse
Public License 2.0 are satisfied: GNU General Public License, version 2
or later which is available at
https://www.gnu.org/licenses/old-licenses/gpl-2.0-standalone.html
SPDX-License-Identifier: EPL-2.0 OR GPL-2.0-or-later
<configuration xmlns:xsi="http://www.w3.org/2001/XMLSchema-instance" xsi:noNamespaceSchemaLocation="http://sumo.dlr.de/xsd/sumoConfiguration.xsd">

    <input>
        <net-file value="net.net.xml"/>
        <route-files value="input_routes.rou.xml"/>
        <additional-files value="input_additional.add.xml"/>
    </input>

    <output>
        <write-license value="true"/>
    </output>

    <time>
        <begin value="0"/>
        <end value="1000"/>
    </time>

    <processing>
        <default.speeddev value="0"/>
    </processing>

    <report>
        <xml-validation value="never"/>
        <duration-log.disable value="true"/>
        <no-step-log value="true"/>
    </report>

</configuration>
-->

<meandata xmlns:xsi="http://www.w3.org/2001/XMLSchema-instance" xsi:noNamespaceSchemaLocation="http://sumo.dlr.de/xsd/meandata_file.xsd">
    <interval begin="0.00" end="60.00" id="dump_60">
        <edge id="1fi" sampledSeconds="0.00" departed="0" arrived="0" entered="0" left="0" laneChangedFrom="0" laneChangedTo="0"/>
        <edge id="1o" sampledSeconds="0.00" departed="0" arrived="0" entered="0" left="0" laneChangedFrom="0" laneChangedTo="0"/>
        <edge id="1si" sampledSeconds="0.00" departed="0" arrived="0" entered="0" left="0" laneChangedFrom="0" laneChangedTo="0"/>
        <edge id="2fi" sampledSeconds="0.00" departed="0" arrived="0" entered="0" left="0" laneChangedFrom="0" laneChangedTo="0"/>
        <edge id="2o" sampledSeconds="0.00" departed="0" arrived="0" entered="0" left="0" laneChangedFrom="0" laneChangedTo="0"/>
        <edge id="2si" sampledSeconds="0.00" departed="0" arrived="0" entered="0" left="0" laneChangedFrom="0" laneChangedTo="0"/>
        <edge id="3fi" sampledSeconds="0.00" departed="0" arrived="0" entered="0" left="0" laneChangedFrom="0" laneChangedTo="0"/>
        <edge id="3o" sampledSeconds="0.00" departed="0" arrived="0" entered="0" left="0" laneChangedFrom="0" laneChangedTo="0"/>
        <edge id="3si" sampledSeconds="0.00" departed="0" arrived="0" entered="0" left="0" laneChangedFrom="0" laneChangedTo="0"/>
        <edge id="4fi" sampledSeconds="0.00" departed="0" arrived="0" entered="0" left="0" laneChangedFrom="0" laneChangedTo="0"/>
        <edge id="4o" sampledSeconds="0.00" departed="0" arrived="0" entered="0" left="0" laneChangedFrom="0" laneChangedTo="0"/>
        <edge id="4si" sampledSeconds="0.00" departed="0" arrived="0" entered="0" left="0" laneChangedFrom="0" laneChangedTo="0"/>
    </interval>
    <interval begin="0.00" end="60.00" id="dump_60">
        <edge id="1fi">
            <lane id="1fi_0" sampledSeconds="0.00" departed="0" arrived="0" entered="0" left="0" laneChangedFrom="0" laneChangedTo="0"/>
        </edge>
        <edge id="1o">
            <lane id="1o_0" sampledSeconds="0.00" departed="0" arrived="0" entered="0" left="0" laneChangedFrom="0" laneChangedTo="0"/>
        </edge>
        <edge id="1si">
            <lane id="1si_0" sampledSeconds="0.00" departed="0" arrived="0" entered="0" left="0" laneChangedFrom="0" laneChangedTo="0"/>
            <lane id="1si_1" sampledSeconds="0.00" departed="0" arrived="0" entered="0" left="0" laneChangedFrom="0" laneChangedTo="0"/>
            <lane id="1si_2" sampledSeconds="0.00" departed="0" arrived="0" entered="0" left="0" laneChangedFrom="0" laneChangedTo="0"/>
        </edge>
        <edge id="2fi">
            <lane id="2fi_0" sampledSeconds="0.00" departed="0" arrived="0" entered="0" left="0" laneChangedFrom="0" laneChangedTo="0"/>
        </edge>
        <edge id="2o">
            <lane id="2o_0" sampledSeconds="0.00" departed="0" arrived="0" entered="0" left="0" laneChangedFrom="0" laneChangedTo="0"/>
        </edge>
        <edge id="2si">
            <lane id="2si_0" sampledSeconds="0.00" departed="0" arrived="0" entered="0" left="0" laneChangedFrom="0" laneChangedTo="0"/>
            <lane id="2si_1" sampledSeconds="0.00" departed="0" arrived="0" entered="0" left="0" laneChangedFrom="0" laneChangedTo="0"/>
            <lane id="2si_2" sampledSeconds="0.00" departed="0" arrived="0" entered="0" left="0" laneChangedFrom="0" laneChangedTo="0"/>
        </edge>
        <edge id="3fi">
            <lane id="3fi_0" sampledSeconds="0.00" departed="0" arrived="0" entered="0" left="0" laneChangedFrom="0" laneChangedTo="0"/>
        </edge>
        <edge id="3o">
            <lane id="3o_0" sampledSeconds="0.00" departed="0" arrived="0" entered="0" left="0" laneChangedFrom="0" laneChangedTo="0"/>
        </edge>
        <edge id="3si">
            <lane id="3si_0" sampledSeconds="0.00" departed="0" arrived="0" entered="0" left="0" laneChangedFrom="0" laneChangedTo="0"/>
            <lane id="3si_1" sampledSeconds="0.00" departed="0" arrived="0" entered="0" left="0" laneChangedFrom="0" laneChangedTo="0"/>
            <lane id="3si_2" sampledSeconds="0.00" departed="0" arrived="0" entered="0" left="0" laneChangedFrom="0" laneChangedTo="0"/>
        </edge>
        <edge id="4fi">
            <lane id="4fi_0" sampledSeconds="0.00" departed="0" arrived="0" entered="0" left="0" laneChangedFrom="0" laneChangedTo="0"/>
        </edge>
        <edge id="4o">
            <lane id="4o_0" sampledSeconds="0.00" departed="0" arrived="0" entered="0" left="0" laneChangedFrom="0" laneChangedTo="0"/>
        </edge>
        <edge id="4si">
            <lane id="4si_0" sampledSeconds="0.00" departed="0" arrived="0" entered="0" left="0" laneChangedFrom="0" laneChangedTo="0"/>
            <lane id="4si_1" sampledSeconds="0.00" departed="0" arrived="0" entered="0" left="0" laneChangedFrom="0" laneChangedTo="0"/>
            <lane id="4si_2" sampledSeconds="0.00" departed="0" arrived="0" entered="0" left="0" laneChangedFrom="0" laneChangedTo="0"/>
        </edge>
    </interval>
    <interval begin="60.00" end="120.00" id="dump_60">
        <edge id="1fi" sampledSeconds="28.00" traveltime="28.65" overlapTraveltime="29.23" density="1.88" laneDensity="1.88" occupancy="0.94" waitingTime="0.00" timeLoss="6.14" speed="8.67" speedRelative="0.78" departed="2" arrived="0" entered="0" left="0" laneChangedFrom="0" laneChangedTo="0"/>
        <edge id="1o" sampledSeconds="0.00" departed="0" arrived="0" entered="0" left="0" laneChangedFrom="0" laneChangedTo="0"/>
        <edge id="1si" sampledSeconds="0.00" departed="0" arrived="0" entered="0" left="0" laneChangedFrom="0" laneChangedTo="0"/>
        <edge id="2fi" sampledSeconds="28.00" traveltime="28.45" overlapTraveltime="29.02" density="1.88" laneDensity="1.88" occupancy="0.94" waitingTime="0.00" timeLoss="5.98" speed="8.74" speedRelative="0.79" departed="2" arrived="0" entered="0" left="0" laneChangedFrom="0" laneChangedTo="0"/>
        <edge id="2o" sampledSeconds="0.00" departed="0" arrived="0" entered="0" left="0" laneChangedFrom="0" laneChangedTo="0"/>
        <edge id="2si" sampledSeconds="0.00" departed="0" arrived="0" entered="0" left="0" laneChangedFrom="0" laneChangedTo="0"/>
        <edge id="3fi" sampledSeconds="50.00" traveltime="28.72" overlapTraveltime="29.30" density="3.35" laneDensity="3.35" occupancy="1.68" waitingTime="0.00" timeLoss="11.06" speed="8.65" speedRelative="0.78" departed="4" arrived="0" entered="0" left="0" laneChangedFrom="0" laneChangedTo="0"/>
        <edge id="3o" sampledSeconds="0.00" departed="0" arrived="0" entered="0" left="0" laneChangedFrom="0" laneChangedTo="0"/>
        <edge id="3si" sampledSeconds="0.00" departed="0" arrived="0" entered="0" left="0" laneChangedFrom="0" laneChangedTo="0"/>
        <edge id="4fi" sampledSeconds="0.00" departed="0" arrived="0" entered="0" left="0" laneChangedFrom="0" laneChangedTo="0"/>
        <edge id="4o" sampledSeconds="0.00" departed="0" arrived="0" entered="0" left="0" laneChangedFrom="0" laneChangedTo="0"/>
        <edge id="4si" sampledSeconds="0.00" departed="0" arrived="0" entered="0" left="0" laneChangedFrom="0" laneChangedTo="0"/>
    </interval>
    <interval begin="60.00" end="120.00" id="dump_60">
        <edge id="1fi">
            <lane id="1fi_0" sampledSeconds="28.00" traveltime="28.65" overlapTraveltime="29.23" density="1.88" laneDensity="1.88" occupancy="0.94" waitingTime="0.00" timeLoss="6.14" speed="8.67" speedRelative="0.78" departed="2" arrived="0" entered="0" left="0" laneChangedFrom="0" laneChangedTo="0"/>
        </edge>
        <edge id="1o">
            <lane id="1o_0" sampledSeconds="0.00" departed="0" arrived="0" entered="0" left="0" laneChangedFrom="0" laneChangedTo="0"/>
        </edge>
        <edge id="1si">
            <lane id="1si_0" sampledSeconds="0.00" departed="0" arrived="0" entered="0" left="0" laneChangedFrom="0" laneChangedTo="0"/>
            <lane id="1si_1" sampledSeconds="0.00" departed="0" arrived="0" entered="0" left="0" laneChangedFrom="0" laneChangedTo="0"/>
            <lane id="1si_2" sampledSeconds="0.00" departed="0" arrived="0" entered="0" left="0" laneChangedFrom="0" laneChangedTo="0"/>
        </edge>
        <edge id="2fi">
            <lane id="2fi_0" sampledSeconds="28.00" traveltime="28.45" overlapTraveltime="29.02" density="1.88" laneDensity="1.88" occupancy="0.94" waitingTime="0.00" timeLoss="5.98" speed="8.74" speedRelative="0.79" departed="2" arrived="0" entered="0" left="0" laneChangedFrom="0" laneChangedTo="0"/>
        </edge>
        <edge id="2o">
            <lane id="2o_0" sampledSeconds="0.00" departed="0" arrived="0" entered="0" left="0" laneChangedFrom="0" laneChangedTo="0"/>
        </edge>
        <edge id="2si">
            <lane id="2si_0" sampledSeconds="0.00" departed="0" arrived="0" entered="0" left="0" laneChangedFrom="0" laneChangedTo="0"/>
            <lane id="2si_1" sampledSeconds="0.00" departed="0" arrived="0" entered="0" left="0" laneChangedFrom="0" laneChangedTo="0"/>
            <lane id="2si_2" sampledSeconds="0.00" departed="0" arrived="0" entered="0" left="0" laneChangedFrom="0" laneChangedTo="0"/>
        </edge>
        <edge id="3fi">
            <lane id="3fi_0" sampledSeconds="50.00" traveltime="28.72" overlapTraveltime="29.30" density="3.35" laneDensity="3.35" occupancy="1.68" waitingTime="0.00" timeLoss="11.06" speed="8.65" speedRelative="0.78" departed="4" arrived="0" entered="0" left="0" laneChangedFrom="0" laneChangedTo="0"/>
        </edge>
        <edge id="3o">
            <lane id="3o_0" sampledSeconds="0.00" departed="0" arrived="0" entered="0" left="0" laneChangedFrom="0" laneChangedTo="0"/>
        </edge>
        <edge id="3si">
            <lane id="3si_0" sampledSeconds="0.00" departed="0" arrived="0" entered="0" left="0" laneChangedFrom="0" laneChangedTo="0"/>
            <lane id="3si_1" sampledSeconds="0.00" departed="0" arrived="0" entered="0" left="0" laneChangedFrom="0" laneChangedTo="0"/>
            <lane id="3si_2" sampledSeconds="0.00" departed="0" arrived="0" entered="0" left="0" laneChangedFrom="0" laneChangedTo="0"/>
        </edge>
        <edge id="4fi">
            <lane id="4fi_0" sampledSeconds="0.00" departed="0" arrived="0" entered="0" left="0" laneChangedFrom="0" laneChangedTo="0"/>
        </edge>
        <edge id="4o">
            <lane id="4o_0" sampledSeconds="0.00" departed="0" arrived="0" entered="0" left="0" laneChangedFrom="0" laneChangedTo="0"/>
        </edge>
        <edge id="4si">
            <lane id="4si_0" sampledSeconds="0.00" departed="0" arrived="0" entered="0" left="0" laneChangedFrom="0" laneChangedTo="0"/>
            <lane id="4si_1" sampledSeconds="0.00" departed="0" arrived="0" entered="0" left="0" laneChangedFrom="0" laneChangedTo="0"/>
            <lane id="4si_2" sampledSeconds="0.00" departed="0" arrived="0" entered="0" left="0" laneChangedFrom="0" laneChangedTo="0"/>
        </edge>
    </interval>
    <interval begin="900.00" end="960.00" id="dump_60">
        <edge id="1fi" sampledSeconds="1520.65" traveltime="129.96" overlapTraveltime="130.72" density="101.99" laneDensity="101.99" occupancy="49.94" waitingTime="372.00" timeLoss="1257.22" speed="1.94" speedRelative="0.17" departed="2" arrived="0" entered="8" left="18" laneChangedFrom="0" laneChangedTo="0"/>
        <edge id="1o" sampledSeconds="1023.11" traveltime="64.77" overlapTraveltime="66.17" density="34.90" laneDensity="34.90" occupancy="17.22" waitingTime="102.00" timeLoss="336.05" speed="7.46" speedRelative="0.67" departed="0" arrived="0" entered="21" left="9" laneChangedFrom="0" laneChangedTo="0"/>
        <edge id="1si" sampledSeconds="2103.42" traveltime="155.71" overlapTraveltime="158.24" density="147.83" laneDensity="49.28" occupancy="24.41" waitingTime="1291.00" timeLoss="1871.25" speed="1.53" speedRelative="0.11" departed="0" arrived="0" entered="18" left="9" laneChangedFrom="0" laneChangedTo="0"/>
        <edge id="2fi" sampledSeconds="292.97" traveltime="24.73" overlapTraveltime="25.20" density="19.65" laneDensity="19.65" occupancy="9.67" waitingTime="0.00" timeLoss="29.35" speed="10.06" speedRelative="0.91" departed="5" arrived="1" entered="7" left="12" laneChangedFrom="0" laneChangedTo="0"/>
        <edge id="2o" sampledSeconds="468.51" traveltime="47.11" overlapTraveltime="47.59" density="15.98" laneDensity="15.98" occupancy="7.88" waitingTime="0.00" timeLoss="31.06" speed="10.37" speedRelative="0.93" departed="0" arrived="0" entered="18" left="7" laneChangedFrom="0" laneChangedTo="0"/>
        <edge id="2si" sampledSeconds="749.17" traveltime="53.42" overlapTraveltime="54.89" density="52.65" laneDensity="17.55" occupancy="8.68" waitingTime="393.00" timeLoss="510.14" speed="4.41" speedRelative="0.32" departed="0" arrived="0" entered="12" left="15" laneChangedFrom="0" laneChangedTo="0"/>
        <edge id="3fi" sampledSeconds="572.36" traveltime="24.77" overlapTraveltime="25.24" density="38.39" laneDensity="38.39" occupancy="18.88" waitingTime="0.00" timeLoss="57.05" speed="10.04" speedRelative="0.90" departed="8" arrived="10" entered="15" left="13" laneChangedFrom="0" laneChangedTo="0"/>
        <edge id="3o" sampledSeconds="485.06" traveltime="47.32" overlapTraveltime="47.90" density="16.54" laneDensity="16.54" occupancy="8.18" waitingTime="0.00" timeLoss="35.14" speed="10.31" speedRelative="0.93" departed="0" arrived="0" entered="6" left="15" laneChangedFrom="0" laneChangedTo="0"/>
        <edge id="3si" sampledSeconds="505.07" traveltime="41.94" overlapTraveltime="44.83" density="35.50" laneDensity="11.83" occupancy="5.78" waitingTime="209.00" timeLoss="307.40" speed="5.40" speedRelative="0.39" departed="0" arrived="0" entered="13" left="19" laneChangedFrom="0" laneChangedTo="0"/>
        <edge id="4fi" sampledSeconds="332.23" traveltime="23.84" overlapTraveltime="24.31" density="22.28" laneDensity="22.28" occupancy="10.92" waitingTime="0.00" timeLoss="22.02" speed="10.43" speedRelative="0.94" departed="0" arrived="0" entered="17" left="11" laneChangedFrom="0" laneChangedTo="0"/>
        <edge id="4o" sampledSeconds="645.09" traveltime="47.02" overlapTraveltime="47.50" density="22.00" laneDensity="22.00" occupancy="10.87" waitingTime="0.00" timeLoss="41.64" speed="10.39" speedRelative="0.94" departed="0" arrived="0" entered="13" left="17" laneChangedFrom="0" laneChangedTo="0"/>
        <edge id="4si" sampledSeconds="801.28" traveltime="54.75" overlapTraveltime="57.11" density="56.31" laneDensity="18.77" occupancy="9.26" waitingTime="371.00" timeLoss="555.12" speed="4.24" speedRelative="0.31" departed="0" arrived="0" entered="11" left="21" laneChangedFrom="0" laneChangedTo="0"/>
    </interval>
    <interval begin="960.00" end="1000.00" id="dump_60">
        <edge id="1fi" sampledSeconds="900.54" traveltime="81.57" overlapTraveltime="85.30" density="90.60" laneDensity="90.60" occupancy="44.37" waitingTime="180.00" timeLoss="660.06" speed="2.97" speedRelative="0.27" departed="0" arrived="1" entered="13" left="4" laneChangedFrom="0" laneChangedTo="0"/>
        <edge id="1o" sampledSeconds="806.45" traveltime="79.58" overlapTraveltime="80.85" density="41.26" laneDensity="41.26" occupancy="20.40" waitingTime="0.00" timeLoss="363.23" speed="6.11" speedRelative="0.55" departed="0" arrived="0" entered="7" left="12" laneChangedFrom="0" laneChangedTo="0"/>
        <edge id="1si" sampledSeconds="1345.61" traveltime="151.52" overlapTraveltime="153.55" density="141.85" laneDensity="47.28" occupancy="23.38" waitingTime="630.00" timeLoss="1192.33" speed="1.58" speedRelative="0.11" departed="0" arrived="0" entered="3" left="9" laneChangedFrom="0" laneChangedTo="0"/>
        <edge id="2fi" sampledSeconds="313.94" traveltime="24.61" overlapTraveltime="25.08" density="31.58" laneDensity="31.58" occupancy="15.56" waitingTime="0.00" timeLoss="29.90" speed="10.11" speedRelative="0.91" departed="5" arrived="0" entered="8" left="11" laneChangedFrom="0" laneChangedTo="0"/>
        <edge id="2o" sampledSeconds="468.61" traveltime="47.46" overlapTraveltime="47.98" density="23.97" laneDensity="23.97" occupancy="11.89" waitingTime="0.00" timeLoss="34.67" speed="10.29" speedRelative="0.93" departed="0" arrived="0" entered="6" left="9" laneChangedFrom="0" laneChangedTo="0"/>
        <edge id="2si" sampledSeconds="263.42" traveltime="26.65" overlapTraveltime="29.28" density="27.77" laneDensity="9.26" occupancy="4.53" waitingTime="70.00" timeLoss="106.24" speed="8.27" speedRelative="0.60" departed="0" arrived="0" entered="11" left="4" laneChangedFrom="0" laneChangedTo="0"/>
        <edge id="3fi" sampledSeconds="385.62" traveltime="25.66" overlapTraveltime="26.13" density="38.79" laneDensity="38.79" occupancy="19.20" waitingTime="1.00" timeLoss="50.28" speed="9.70" speedRelative="0.87" departed="12" arrived="5" entered="3" left="10" laneChangedFrom="0" laneChangedTo="0"/>
        <edge id="3o" sampledSeconds="239.09" traveltime="47.01" overlapTraveltime="47.54" density="12.23" laneDensity="12.23" occupancy="6.02" waitingTime="0.00" timeLoss="15.64" speed="10.38" speedRelative="0.93" departed="0" arrived="0" entered="12" left="3" laneChangedFrom="0" laneChangedTo="0"/>
        <edge id="3si" sampledSeconds="562.97" traveltime="54.56" overlapTraveltime="55.98" density="59.35" laneDensity="19.78" occupancy="9.78" waitingTime="290.00" timeLoss="387.14" speed="4.33" speedRelative="0.31" departed="0" arrived="0" entered="10" left="10" laneChangedFrom="0" laneChangedTo="0"/>
        <edge id="4fi" sampledSeconds="180.02" traveltime="23.79" overlapTraveltime="24.24" density="18.11" laneDensity="18.11" occupancy="8.88" waitingTime="0.00" timeLoss="11.99" speed="10.46" speedRelative="0.94" departed="0" arrived="0" entered="5" left="10" laneChangedFrom="0" laneChangedTo="0"/>
        <edge id="4o" sampledSeconds="367.50" traveltime="47.27" overlapTraveltime="47.76" density="18.80" laneDensity="18.80" occupancy="9.31" waitingTime="0.00" timeLoss="25.60" speed="10.34" speedRelative="0.93" departed="0" arrived="0" entered="8" left="6" laneChangedFrom="0" laneChangedTo="0"/>
        <edge id="4si" sampledSeconds="755.75" traveltime="76.64" overlapTraveltime="77.99" density="79.67" laneDensity="26.56" occupancy="13.18" waitingTime="497.00" timeLoss="586.32" speed="3.10" speedRelative="0.22" departed="0" arrived="0" entered="10" left="10" laneChangedFrom="0" laneChangedTo="0"/>
    </interval>
</meandata>
