<?xml version="1.0" encoding="UTF-8"?>

<!-- generated on Fri Aug 24 13:48:14 2018 by Eclipse SUMO Version ad1c44c
This data file and the accompanying materials
are made available under the terms of the Eclipse Public License v2.0
which accompanies this distribution, and is available at
http://www.eclipse.org/legal/epl-v20.html
SPDX-License-Identifier: EPL-2.0
<configuration xmlns:xsi="http://www.w3.org/2001/XMLSchema-instance" xsi:noNamespaceSchemaLocation="http://sumo.dlr.de/xsd/sumoConfiguration.xsd">

    <input>
        <net-file value="net.net.xml"/>
        <route-files value="input_routes.rou.xml"/>
        <additional-files value="input_additional.add.xml"/>
    </input>

    <output>
        <write-license value="true"/>
    </output>

    <time>
        <begin value="0"/>
        <end value="1000"/>
    </time>

    <processing>
        <default.speeddev value="0"/>
    </processing>

    <report>
        <xml-validation value="never"/>
        <duration-log.disable value="true"/>
        <no-step-log value="true"/>
    </report>

</configuration>
-->

<meandata xmlns:xsi="http://www.w3.org/2001/XMLSchema-instance" xsi:noNamespaceSchemaLocation="http://sumo.dlr.de/xsd/meandata_file.xsd">
    <interval begin="0.00" end="60.00" id="dump_60">
        <edge id="1fi" sampledSeconds="0.00" departed="0" arrived="0" entered="0" left="0" laneChangedFrom="0" laneChangedTo="0"/>
        <edge id="1o" sampledSeconds="0.00" departed="0" arrived="0" entered="0" left="0" laneChangedFrom="0" laneChangedTo="0"/>
        <edge id="1si" sampledSeconds="0.00" departed="0" arrived="0" entered="0" left="0" laneChangedFrom="0" laneChangedTo="0"/>
        <edge id="2fi" sampledSeconds="0.00" departed="0" arrived="0" entered="0" left="0" laneChangedFrom="0" laneChangedTo="0"/>
        <edge id="2o" sampledSeconds="0.00" departed="0" arrived="0" entered="0" left="0" laneChangedFrom="0" laneChangedTo="0"/>
        <edge id="2si" sampledSeconds="0.00" departed="0" arrived="0" entered="0" left="0" laneChangedFrom="0" laneChangedTo="0"/>
        <edge id="3fi" sampledSeconds="0.00" departed="0" arrived="0" entered="0" left="0" laneChangedFrom="0" laneChangedTo="0"/>
        <edge id="3o" sampledSeconds="0.00" departed="0" arrived="0" entered="0" left="0" laneChangedFrom="0" laneChangedTo="0"/>
        <edge id="3si" sampledSeconds="0.00" departed="0" arrived="0" entered="0" left="0" laneChangedFrom="0" laneChangedTo="0"/>
        <edge id="4fi" sampledSeconds="0.00" departed="0" arrived="0" entered="0" left="0" laneChangedFrom="0" laneChangedTo="0"/>
        <edge id="4o" sampledSeconds="0.00" departed="0" arrived="0" entered="0" left="0" laneChangedFrom="0" laneChangedTo="0"/>
        <edge id="4si" sampledSeconds="0.00" departed="0" arrived="0" entered="0" left="0" laneChangedFrom="0" laneChangedTo="0"/>
    </interval>
    <interval begin="0.00" end="60.00" id="dump_60">
        <edge id="1fi">
            <lane id="1fi_0" sampledSeconds="0.00" departed="0" arrived="0" entered="0" left="0" laneChangedFrom="0" laneChangedTo="0"/>
        </edge>
        <edge id="1o">
            <lane id="1o_0" sampledSeconds="0.00" departed="0" arrived="0" entered="0" left="0" laneChangedFrom="0" laneChangedTo="0"/>
        </edge>
        <edge id="1si">
            <lane id="1si_0" sampledSeconds="0.00" departed="0" arrived="0" entered="0" left="0" laneChangedFrom="0" laneChangedTo="0"/>
            <lane id="1si_1" sampledSeconds="0.00" departed="0" arrived="0" entered="0" left="0" laneChangedFrom="0" laneChangedTo="0"/>
            <lane id="1si_2" sampledSeconds="0.00" departed="0" arrived="0" entered="0" left="0" laneChangedFrom="0" laneChangedTo="0"/>
        </edge>
        <edge id="2fi">
            <lane id="2fi_0" sampledSeconds="0.00" departed="0" arrived="0" entered="0" left="0" laneChangedFrom="0" laneChangedTo="0"/>
        </edge>
        <edge id="2o">
            <lane id="2o_0" sampledSeconds="0.00" departed="0" arrived="0" entered="0" left="0" laneChangedFrom="0" laneChangedTo="0"/>
        </edge>
        <edge id="2si">
            <lane id="2si_0" sampledSeconds="0.00" departed="0" arrived="0" entered="0" left="0" laneChangedFrom="0" laneChangedTo="0"/>
            <lane id="2si_1" sampledSeconds="0.00" departed="0" arrived="0" entered="0" left="0" laneChangedFrom="0" laneChangedTo="0"/>
            <lane id="2si_2" sampledSeconds="0.00" departed="0" arrived="0" entered="0" left="0" laneChangedFrom="0" laneChangedTo="0"/>
        </edge>
        <edge id="3fi">
            <lane id="3fi_0" sampledSeconds="0.00" departed="0" arrived="0" entered="0" left="0" laneChangedFrom="0" laneChangedTo="0"/>
        </edge>
        <edge id="3o">
            <lane id="3o_0" sampledSeconds="0.00" departed="0" arrived="0" entered="0" left="0" laneChangedFrom="0" laneChangedTo="0"/>
        </edge>
        <edge id="3si">
            <lane id="3si_0" sampledSeconds="0.00" departed="0" arrived="0" entered="0" left="0" laneChangedFrom="0" laneChangedTo="0"/>
            <lane id="3si_1" sampledSeconds="0.00" departed="0" arrived="0" entered="0" left="0" laneChangedFrom="0" laneChangedTo="0"/>
            <lane id="3si_2" sampledSeconds="0.00" departed="0" arrived="0" entered="0" left="0" laneChangedFrom="0" laneChangedTo="0"/>
        </edge>
        <edge id="4fi">
            <lane id="4fi_0" sampledSeconds="0.00" departed="0" arrived="0" entered="0" left="0" laneChangedFrom="0" laneChangedTo="0"/>
        </edge>
        <edge id="4o">
            <lane id="4o_0" sampledSeconds="0.00" departed="0" arrived="0" entered="0" left="0" laneChangedFrom="0" laneChangedTo="0"/>
        </edge>
        <edge id="4si">
            <lane id="4si_0" sampledSeconds="0.00" departed="0" arrived="0" entered="0" left="0" laneChangedFrom="0" laneChangedTo="0"/>
            <lane id="4si_1" sampledSeconds="0.00" departed="0" arrived="0" entered="0" left="0" laneChangedFrom="0" laneChangedTo="0"/>
            <lane id="4si_2" sampledSeconds="0.00" departed="0" arrived="0" entered="0" left="0" laneChangedFrom="0" laneChangedTo="0"/>
        </edge>
    </interval>
    <interval begin="60.00" end="120.00" id="dump_60">
        <edge id="1fi" sampledSeconds="28.00" traveltime="27.97" overlapTraveltime="28.54" density="1.88" occupancy="0.94" waitingTime="0.00" speed="8.88" departed="2" arrived="0" entered="0" left="0" laneChangedFrom="0" laneChangedTo="0"/>
        <edge id="1o" sampledSeconds="0.00" departed="0" arrived="0" entered="0" left="0" laneChangedFrom="0" laneChangedTo="0"/>
        <edge id="1si" sampledSeconds="0.00" departed="0" arrived="0" entered="0" left="0" laneChangedFrom="0" laneChangedTo="0"/>
        <edge id="2fi" sampledSeconds="28.00" traveltime="28.24" overlapTraveltime="28.81" density="1.88" occupancy="0.94" waitingTime="0.00" speed="8.80" departed="2" arrived="0" entered="0" left="0" laneChangedFrom="0" laneChangedTo="0"/>
        <edge id="2o" sampledSeconds="0.00" departed="0" arrived="0" entered="0" left="0" laneChangedFrom="0" laneChangedTo="0"/>
        <edge id="2si" sampledSeconds="0.00" departed="0" arrived="0" entered="0" left="0" laneChangedFrom="0" laneChangedTo="0"/>
        <edge id="3fi" sampledSeconds="51.00" traveltime="28.91" overlapTraveltime="29.49" density="3.42" occupancy="1.71" waitingTime="0.00" speed="8.60" departed="4" arrived="0" entered="0" left="0" laneChangedFrom="0" laneChangedTo="0"/>
        <edge id="3o" sampledSeconds="0.00" departed="0" arrived="0" entered="0" left="0" laneChangedFrom="0" laneChangedTo="0"/>
        <edge id="3si" sampledSeconds="0.00" departed="0" arrived="0" entered="0" left="0" laneChangedFrom="0" laneChangedTo="0"/>
        <edge id="4fi" sampledSeconds="0.00" departed="0" arrived="0" entered="0" left="0" laneChangedFrom="0" laneChangedTo="0"/>
        <edge id="4o" sampledSeconds="0.00" departed="0" arrived="0" entered="0" left="0" laneChangedFrom="0" laneChangedTo="0"/>
        <edge id="4si" sampledSeconds="0.00" departed="0" arrived="0" entered="0" left="0" laneChangedFrom="0" laneChangedTo="0"/>
    </interval>
    <interval begin="60.00" end="120.00" id="dump_60">
        <edge id="1fi">
            <lane id="1fi_0" sampledSeconds="28.00" traveltime="27.97" overlapTraveltime="28.54" density="1.88" occupancy="0.94" waitingTime="0.00" speed="8.88" departed="2" arrived="0" entered="0" left="0" laneChangedFrom="0" laneChangedTo="0"/>
        </edge>
        <edge id="1o">
            <lane id="1o_0" sampledSeconds="0.00" departed="0" arrived="0" entered="0" left="0" laneChangedFrom="0" laneChangedTo="0"/>
        </edge>
        <edge id="1si">
            <lane id="1si_0" sampledSeconds="0.00" departed="0" arrived="0" entered="0" left="0" laneChangedFrom="0" laneChangedTo="0"/>
            <lane id="1si_1" sampledSeconds="0.00" departed="0" arrived="0" entered="0" left="0" laneChangedFrom="0" laneChangedTo="0"/>
            <lane id="1si_2" sampledSeconds="0.00" departed="0" arrived="0" entered="0" left="0" laneChangedFrom="0" laneChangedTo="0"/>
        </edge>
        <edge id="2fi">
            <lane id="2fi_0" sampledSeconds="28.00" traveltime="28.24" overlapTraveltime="28.81" density="1.88" occupancy="0.94" waitingTime="0.00" speed="8.80" departed="2" arrived="0" entered="0" left="0" laneChangedFrom="0" laneChangedTo="0"/>
        </edge>
        <edge id="2o">
            <lane id="2o_0" sampledSeconds="0.00" departed="0" arrived="0" entered="0" left="0" laneChangedFrom="0" laneChangedTo="0"/>
        </edge>
        <edge id="2si">
            <lane id="2si_0" sampledSeconds="0.00" departed="0" arrived="0" entered="0" left="0" laneChangedFrom="0" laneChangedTo="0"/>
            <lane id="2si_1" sampledSeconds="0.00" departed="0" arrived="0" entered="0" left="0" laneChangedFrom="0" laneChangedTo="0"/>
            <lane id="2si_2" sampledSeconds="0.00" departed="0" arrived="0" entered="0" left="0" laneChangedFrom="0" laneChangedTo="0"/>
        </edge>
        <edge id="3fi">
            <lane id="3fi_0" sampledSeconds="51.00" traveltime="28.91" overlapTraveltime="29.49" density="3.42" occupancy="1.71" waitingTime="0.00" speed="8.60" departed="4" arrived="0" entered="0" left="0" laneChangedFrom="0" laneChangedTo="0"/>
        </edge>
        <edge id="3o">
            <lane id="3o_0" sampledSeconds="0.00" departed="0" arrived="0" entered="0" left="0" laneChangedFrom="0" laneChangedTo="0"/>
        </edge>
        <edge id="3si">
            <lane id="3si_0" sampledSeconds="0.00" departed="0" arrived="0" entered="0" left="0" laneChangedFrom="0" laneChangedTo="0"/>
            <lane id="3si_1" sampledSeconds="0.00" departed="0" arrived="0" entered="0" left="0" laneChangedFrom="0" laneChangedTo="0"/>
            <lane id="3si_2" sampledSeconds="0.00" departed="0" arrived="0" entered="0" left="0" laneChangedFrom="0" laneChangedTo="0"/>
        </edge>
        <edge id="4fi">
            <lane id="4fi_0" sampledSeconds="0.00" departed="0" arrived="0" entered="0" left="0" laneChangedFrom="0" laneChangedTo="0"/>
        </edge>
        <edge id="4o">
            <lane id="4o_0" sampledSeconds="0.00" departed="0" arrived="0" entered="0" left="0" laneChangedFrom="0" laneChangedTo="0"/>
        </edge>
        <edge id="4si">
            <lane id="4si_0" sampledSeconds="0.00" departed="0" arrived="0" entered="0" left="0" laneChangedFrom="0" laneChangedTo="0"/>
            <lane id="4si_1" sampledSeconds="0.00" departed="0" arrived="0" entered="0" left="0" laneChangedFrom="0" laneChangedTo="0"/>
            <lane id="4si_2" sampledSeconds="0.00" departed="0" arrived="0" entered="0" left="0" laneChangedFrom="0" laneChangedTo="0"/>
        </edge>
    </interval>
    <interval begin="900.00" end="960.00" id="dump_60">
        <edge id="1fi" sampledSeconds="578.88" traveltime="26.75" overlapTraveltime="27.70" density="38.83" occupancy="19.07" waitingTime="2.00" speed="9.15" departed="6" arrived="6" entered="14" left="15" laneChangedFrom="0" laneChangedTo="0"/>
        <edge id="1o" sampledSeconds="734.39" traveltime="47.03" overlapTraveltime="47.54" density="25.05" occupancy="12.37" waitingTime="0.00" speed="10.38" departed="0" arrived="0" entered="20" left="14" laneChangedFrom="0" laneChangedTo="0"/>
        <edge id="1si" sampledSeconds="2388.66" traveltime="155.28" overlapTraveltime="157.20" density="167.87" occupancy="27.82" waitingTime="1482.00" speed="1.54" departed="0" arrived="0" entered="14" left="13" laneChangedFrom="0" laneChangedTo="0"/>
        <edge id="2fi" sampledSeconds="498.07" traveltime="24.38" overlapTraveltime="24.86" density="33.41" occupancy="16.43" waitingTime="0.00" speed="10.20" departed="5" arrived="9" entered="15" left="13" laneChangedFrom="0" laneChangedTo="0"/>
        <edge id="2o" sampledSeconds="618.82" traveltime="47.04" overlapTraveltime="47.51" density="21.11" occupancy="10.43" waitingTime="0.00" speed="10.39" departed="0" arrived="0" entered="15" left="14" laneChangedFrom="0" laneChangedTo="0"/>
        <edge id="2si" sampledSeconds="898.34" traveltime="58.10" overlapTraveltime="59.60" density="63.13" occupancy="10.42" waitingTime="488.00" speed="4.06" departed="0" arrived="0" entered="14" left="14" laneChangedFrom="0" laneChangedTo="0"/>
        <edge id="3fi" sampledSeconds="584.79" traveltime="24.56" overlapTraveltime="25.03" density="39.22" occupancy="19.33" waitingTime="0.00" speed="10.13" departed="6" arrived="9" entered="18" left="13" laneChangedFrom="0" laneChangedTo="0"/>
        <edge id="3o" sampledSeconds="688.36" traveltime="47.62" overlapTraveltime="48.17" density="23.48" occupancy="11.60" waitingTime="0.00" speed="10.25" departed="0" arrived="0" entered="13" left="19" laneChangedFrom="0" laneChangedTo="0"/>
        <edge id="3si" sampledSeconds="515.73" traveltime="41.61" overlapTraveltime="44.28" density="36.25" occupancy="5.89" waitingTime="193.00" speed="5.47" departed="0" arrived="0" entered="13" left="19" laneChangedFrom="0" laneChangedTo="0"/>
        <edge id="4fi" sampledSeconds="304.62" traveltime="23.83" overlapTraveltime="24.29" density="20.43" occupancy="10.01" waitingTime="0.00" speed="10.44" departed="0" arrived="0" entered="16" left="10" laneChangedFrom="0" laneChangedTo="0"/>
        <edge id="4o" sampledSeconds="626.68" traveltime="46.91" overlapTraveltime="47.39" density="21.37" occupancy="10.56" waitingTime="0.00" speed="10.42" departed="0" arrived="0" entered="13" left="17" laneChangedFrom="0" laneChangedTo="0"/>
        <edge id="4si" sampledSeconds="461.89" traveltime="36.19" overlapTraveltime="38.69" density="32.46" occupancy="5.27" waitingTime="124.00" speed="6.26" departed="0" arrived="0" entered="10" left="21" laneChangedFrom="0" laneChangedTo="0"/>
    </interval>
    <interval begin="960.00" end="1000.00" id="dump_60">
        <edge id="1fi" sampledSeconds="699.81" traveltime="63.12" overlapTraveltime="67.50" density="70.40" occupancy="34.56" waitingTime="267.00" speed="3.76" departed="5" arrived="0" entered="11" left="2" laneChangedFrom="0" laneChangedTo="0"/>
        <edge id="1o" sampledSeconds="454.00" traveltime="47.07" overlapTraveltime="47.65" density="23.23" occupancy="11.48" waitingTime="0.00" speed="10.36" departed="0" arrived="0" entered="7" left="11" laneChangedFrom="0" laneChangedTo="0"/>
        <edge id="1si" sampledSeconds="1170.96" traveltime="216.23" overlapTraveltime="215.08" density="123.44" occupancy="20.33" waitingTime="355.00" speed="1.13" departed="0" arrived="0" entered="2" left="10" laneChangedFrom="0" laneChangedTo="0"/>
        <edge id="2fi" sampledSeconds="347.18" traveltime="24.57" overlapTraveltime="25.04" density="34.93" occupancy="17.21" waitingTime="0.00" speed="10.12" departed="5" arrived="0" entered="8" left="12" laneChangedFrom="0" laneChangedTo="0"/>
        <edge id="2o" sampledSeconds="417.18" traveltime="47.11" overlapTraveltime="47.64" density="21.34" occupancy="10.56" waitingTime="0.00" speed="10.36" departed="0" arrived="0" entered="8" left="8" laneChangedFrom="0" laneChangedTo="0"/>
        <edge id="2si" sampledSeconds="333.86" traveltime="29.85" overlapTraveltime="31.61" density="35.20" occupancy="5.75" waitingTime="104.00" speed="7.66" departed="0" arrived="0" entered="12" left="8" laneChangedFrom="0" laneChangedTo="0"/>
        <edge id="3fi" sampledSeconds="367.43" traveltime="25.17" overlapTraveltime="25.64" density="36.97" occupancy="18.24" waitingTime="0.00" speed="9.89" departed="9" arrived="6" entered="5" left="10" laneChangedFrom="0" laneChangedTo="0"/>
        <edge id="3o" sampledSeconds="528.68" traveltime="47.14" overlapTraveltime="47.65" density="27.05" occupancy="13.41" waitingTime="0.00" speed="10.36" departed="0" arrived="0" entered="12" left="5" laneChangedFrom="0" laneChangedTo="0"/>
        <edge id="3si" sampledSeconds="590.69" traveltime="57.03" overlapTraveltime="58.52" density="62.27" occupancy="10.27" waitingTime="317.00" speed="4.14" departed="0" arrived="0" entered="10" left="10" laneChangedFrom="0" laneChangedTo="0"/>
        <edge id="4fi" sampledSeconds="179.13" traveltime="23.78" overlapTraveltime="24.25" density="18.02" occupancy="8.82" waitingTime="0.00" speed="10.45" departed="0" arrived="0" entered="6" left="10" laneChangedFrom="0" laneChangedTo="0"/>
        <edge id="4o" sampledSeconds="401.13" traveltime="46.90" overlapTraveltime="47.39" density="20.52" occupancy="10.16" waitingTime="0.00" speed="10.42" departed="0" arrived="0" entered="9" left="5" laneChangedFrom="0" laneChangedTo="0"/>
        <edge id="4si" sampledSeconds="522.97" traveltime="50.32" overlapTraveltime="51.57" density="55.13" occupancy="9.09" waitingTime="277.00" speed="4.70" departed="0" arrived="0" entered="10" left="9" laneChangedFrom="0" laneChangedTo="0"/>
    </interval>
</meandata>
