<?xml version="1.0" encoding="UTF-8"?>

<!-- generated on 2023-03-01 13:04:25 by Eclipse SUMO sumo Version v1_16_0+0850-438bb8b
This data file and the accompanying materials
are made available under the terms of the Eclipse Public License v2.0
which accompanies this distribution, and is available at
http://www.eclipse.org/legal/epl-v20.html
This file may also be made available under the following Secondary
Licenses when the conditions for such availability set forth in the Eclipse
Public License 2.0 are satisfied: GNU General Public License, version 2
or later which is available at
https://www.gnu.org/licenses/old-licenses/gpl-2.0-standalone.html
SPDX-License-Identifier: EPL-2.0 OR GPL-2.0-or-later
<configuration xmlns:xsi="http://www.w3.org/2001/XMLSchema-instance" xsi:noNamespaceSchemaLocation="http://sumo.dlr.de/xsd/sumoConfiguration.xsd">

    <input>
        <net-file value="net.net.xml"/>
        <route-files value="input_routes.rou.xml"/>
        <additional-files value="input_additional.add.xml"/>
    </input>

    <output>
        <write-license value="true"/>
    </output>

    <time>
        <begin value="0"/>
        <end value="1000"/>
    </time>

    <processing>
        <default.speeddev value="0"/>
    </processing>

    <report>
        <xml-validation value="never"/>
        <duration-log.disable value="true"/>
        <no-step-log value="true"/>
    </report>

</configuration>
-->

<meandata xmlns:xsi="http://www.w3.org/2001/XMLSchema-instance" xsi:noNamespaceSchemaLocation="http://sumo.dlr.de/xsd/meandata_file.xsd">
    <interval begin="0.00" end="900.00" id="dump_900">
        <edge id="1fi" sampledSeconds="5937.94" traveltime="30.78" overlapTraveltime="31.63" density="26.55" laneDensity="26.55" occupancy="13.08" waitingTime="591.00" timeLoss="1677.11" speed="8.01" speedRelative="0.72" departed="79" arrived="12" entered="123" left="162" laneChangedFrom="0" laneChangedTo="0"/>
        <edge id="1o" sampledSeconds="6139.82" traveltime="47.02" overlapTraveltime="47.51" density="13.96" laneDensity="13.96" occupancy="6.91" waitingTime="0.00" timeLoss="397.93" speed="10.39" speedRelative="0.94" departed="0" arrived="0" entered="133" left="123" laneChangedFrom="0" laneChangedTo="0"/>
        <edge id="1si" sampledSeconds="15882.11" traveltime="105.92" overlapTraveltime="108.16" density="74.41" laneDensity="24.80" occupancy="12.30" waitingTime="9587.00" timeLoss="13312.47" speed="2.24" speedRelative="0.16" departed="0" arrived="0" entered="162" left="134" laneChangedFrom="0" laneChangedTo="0"/>
        <edge id="2fi" sampledSeconds="5625.43" traveltime="24.64" overlapTraveltime="25.11" density="25.15" laneDensity="25.15" occupancy="12.39" waitingTime="0.00" timeLoss="537.68" speed="10.10" speedRelative="0.91" departed="80" arrived="56" entered="150" left="167" laneChangedFrom="0" laneChangedTo="0"/>
        <edge id="2o" sampledSeconds="7213.65" traveltime="47.01" overlapTraveltime="47.51" density="16.40" laneDensity="16.40" occupancy="8.11" waitingTime="0.00" timeLoss="467.31" speed="10.39" speedRelative="0.94" departed="0" arrived="0" entered="152" left="150" laneChangedFrom="0" laneChangedTo="0"/>
        <edge id="2si" sampledSeconds="7815.77" traveltime="46.09" overlapTraveltime="47.64" density="36.62" laneDensity="12.21" occupancy="6.02" waitingTime="3748.00" timeLoss="4944.64" speed="5.08" speedRelative="0.37" departed="0" arrived="0" entered="167" left="160" laneChangedFrom="0" laneChangedTo="0"/>
        <edge id="3fi" sampledSeconds="6288.81" traveltime="25.23" overlapTraveltime="25.70" density="28.12" laneDensity="28.12" occupancy="13.89" waitingTime="0.00" timeLoss="729.39" speed="9.86" speedRelative="0.89" departed="148" arrived="81" entered="105" left="163" laneChangedFrom="0" laneChangedTo="0"/>
        <edge id="3o" sampledSeconds="5348.16" traveltime="47.02" overlapTraveltime="47.55" density="12.16" laneDensity="12.16" occupancy="6.02" waitingTime="0.00" timeLoss="350.13" speed="10.38" speedRelative="0.93" departed="0" arrived="0" entered="117" left="105" laneChangedFrom="0" laneChangedTo="0"/>
        <edge id="3si" sampledSeconds="7418.13" traveltime="44.68" overlapTraveltime="45.95" density="34.76" laneDensity="11.59" occupancy="5.72" waitingTime="3581.00" timeLoss="4593.18" speed="5.27" speedRelative="0.38" departed="0" arrived="0" entered="163" left="147" laneChangedFrom="0" laneChangedTo="0"/>
        <edge id="4fi" sampledSeconds="3746.76" traveltime="23.86" overlapTraveltime="24.32" density="16.75" laneDensity="16.75" occupancy="8.21" waitingTime="0.00" timeLoss="253.76" speed="10.42" speedRelative="0.94" departed="0" arrived="0" entered="155" left="153" laneChangedFrom="0" laneChangedTo="0"/>
        <edge id="4o" sampledSeconds="7685.63" traveltime="47.07" overlapTraveltime="47.55" density="17.48" laneDensity="17.48" occupancy="8.65" waitingTime="0.00" timeLoss="504.15" speed="10.38" speedRelative="0.93" departed="0" arrived="0" entered="168" left="155" laneChangedFrom="0" laneChangedTo="0"/>
        <edge id="4si" sampledSeconds="8174.93" traveltime="53.26" overlapTraveltime="55.31" density="38.30" laneDensity="12.77" occupancy="6.32" waitingTime="4419.00" timeLoss="5588.70" speed="4.38" speedRelative="0.32" departed="0" arrived="0" entered="153" left="129" laneChangedFrom="0" laneChangedTo="0"/>
    </interval>
    <interval begin="0.00" end="900.00" id="dump_900">
        <edge id="1fi">
            <lane id="1fi_0" sampledSeconds="5937.94" traveltime="30.78" overlapTraveltime="31.63" density="26.55" laneDensity="26.55" occupancy="13.08" waitingTime="591.00" timeLoss="1677.11" speed="8.01" speedRelative="0.72" departed="79" arrived="12" entered="123" left="162" laneChangedFrom="0" laneChangedTo="0"/>
        </edge>
        <edge id="1o">
            <lane id="1o_0" sampledSeconds="6139.82" traveltime="47.02" overlapTraveltime="47.51" density="13.96" laneDensity="13.96" occupancy="6.91" waitingTime="0.00" timeLoss="397.93" speed="10.39" speedRelative="0.94" departed="0" arrived="0" entered="133" left="123" laneChangedFrom="0" laneChangedTo="0"/>
        </edge>
        <edge id="1si">
            <lane id="1si_0" sampledSeconds="1902.87" traveltime="57.01" overlapTraveltime="57.66" density="8.92" laneDensity="8.92" occupancy="4.42" waitingTime="1031.00" timeLoss="1324.91" speed="4.20" speedRelative="0.30" departed="0" arrived="0" entered="33" left="33" laneChangedFrom="0" laneChangedTo="0"/>
            <lane id="1si_1" sampledSeconds="1293.10" traveltime="22.18" overlapTraveltime="22.69" density="6.06" laneDensity="6.06" occupancy="2.97" waitingTime="221.00" timeLoss="294.56" speed="10.67" speedRelative="0.77" departed="0" arrived="0" entered="57" left="57" laneChangedFrom="0" laneChangedTo="0"/>
            <lane id="1si_2" sampledSeconds="12686.13" traveltime="217.77" overlapTraveltime="223.21" density="59.44" laneDensity="59.44" occupancy="29.53" waitingTime="8335.00" timeLoss="11693.00" speed="1.08" speedRelative="0.08" departed="0" arrived="0" entered="72" left="44" laneChangedFrom="0" laneChangedTo="0"/>
        </edge>
        <edge id="2fi">
            <lane id="2fi_0" sampledSeconds="5625.43" traveltime="24.64" overlapTraveltime="25.11" density="25.15" laneDensity="25.15" occupancy="12.39" waitingTime="0.00" timeLoss="537.68" speed="10.10" speedRelative="0.91" departed="80" arrived="56" entered="150" left="167" laneChangedFrom="0" laneChangedTo="0"/>
        </edge>
        <edge id="2o">
            <lane id="2o_0" sampledSeconds="7213.65" traveltime="47.01" overlapTraveltime="47.51" density="16.40" laneDensity="16.40" occupancy="8.11" waitingTime="0.00" timeLoss="467.31" speed="10.39" speedRelative="0.94" departed="0" arrived="0" entered="152" left="150" laneChangedFrom="0" laneChangedTo="0"/>
        </edge>
        <edge id="2si">
            <lane id="2si_0" sampledSeconds="3634.40" traveltime="58.00" overlapTraveltime="58.68" density="17.03" laneDensity="17.03" occupancy="8.44" waitingTime="2051.00" timeLoss="2550.28" speed="4.13" speedRelative="0.30" departed="0" arrived="0" entered="64" left="59" laneChangedFrom="0" laneChangedTo="0"/>
            <lane id="2si_1" sampledSeconds="2796.94" traveltime="36.10" overlapTraveltime="36.74" density="13.10" laneDensity="13.10" occupancy="6.46" waitingTime="1094.00" timeLoss="1464.54" speed="6.59" speedRelative="0.47" departed="0" arrived="0" entered="77" left="75" laneChangedFrom="0" laneChangedTo="0"/>
            <lane id="2si_2" sampledSeconds="1384.43" traveltime="46.93" overlapTraveltime="53.25" density="6.49" laneDensity="6.49" occupancy="3.17" waitingTime="603.00" timeLoss="929.82" speed="4.55" speedRelative="0.33" departed="0" arrived="0" entered="26" left="26" laneChangedFrom="0" laneChangedTo="0"/>
        </edge>
        <edge id="3fi">
            <lane id="3fi_0" sampledSeconds="6288.81" traveltime="25.23" overlapTraveltime="25.70" density="28.12" laneDensity="28.12" occupancy="13.89" waitingTime="0.00" timeLoss="729.39" speed="9.86" speedRelative="0.89" departed="148" arrived="81" entered="105" left="163" laneChangedFrom="0" laneChangedTo="0"/>
        </edge>
        <edge id="3o">
            <lane id="3o_0" sampledSeconds="5348.16" traveltime="47.02" overlapTraveltime="47.55" density="12.16" laneDensity="12.16" occupancy="6.02" waitingTime="0.00" timeLoss="350.13" speed="10.38" speedRelative="0.93" departed="0" arrived="0" entered="117" left="105" laneChangedFrom="0" laneChangedTo="0"/>
        </edge>
        <edge id="3si">
            <lane id="3si_0" sampledSeconds="3230.43" traveltime="45.25" overlapTraveltime="45.94" density="15.14" laneDensity="15.14" occupancy="7.48" waitingTime="1603.00" timeLoss="1999.61" speed="5.27" speedRelative="0.38" departed="0" arrived="0" entered="71" left="65" laneChangedFrom="0" laneChangedTo="0"/>
            <lane id="3si_1" sampledSeconds="3158.99" traveltime="44.76" overlapTraveltime="45.42" density="14.80" laneDensity="14.80" occupancy="7.32" waitingTime="1565.00" timeLoss="1941.74" speed="5.33" speedRelative="0.38" departed="0" arrived="0" entered="70" left="65" laneChangedFrom="0" laneChangedTo="0"/>
            <lane id="3si_2" sampledSeconds="1028.71" traveltime="42.54" overlapTraveltime="47.70" density="4.82" laneDensity="4.82" occupancy="2.36" waitingTime="413.00" timeLoss="651.83" speed="5.08" speedRelative="0.37" departed="0" arrived="0" entered="22" left="17" laneChangedFrom="0" laneChangedTo="0"/>
        </edge>
        <edge id="4fi">
            <lane id="4fi_0" sampledSeconds="3746.76" traveltime="23.86" overlapTraveltime="24.32" density="16.75" laneDensity="16.75" occupancy="8.21" waitingTime="0.00" timeLoss="253.76" speed="10.42" speedRelative="0.94" departed="0" arrived="0" entered="155" left="153" laneChangedFrom="0" laneChangedTo="0"/>
        </edge>
        <edge id="4o">
            <lane id="4o_0" sampledSeconds="7685.63" traveltime="47.07" overlapTraveltime="47.55" density="17.48" laneDensity="17.48" occupancy="8.65" waitingTime="0.00" timeLoss="504.15" speed="10.38" speedRelative="0.93" departed="0" arrived="0" entered="168" left="155" laneChangedFrom="0" laneChangedTo="0"/>
        </edge>
        <edge id="4si">
            <lane id="4si_0" sampledSeconds="3076.83" traveltime="61.56" overlapTraveltime="62.34" density="14.42" laneDensity="14.42" occupancy="7.15" waitingTime="1801.00" timeLoss="2213.30" speed="3.88" speedRelative="0.28" departed="0" arrived="0" entered="51" left="41" laneChangedFrom="0" laneChangedTo="0"/>
            <lane id="4si_1" sampledSeconds="1184.68" traveltime="19.05" overlapTraveltime="19.49" density="5.55" laneDensity="5.55" occupancy="2.71" waitingTime="54.00" timeLoss="120.22" speed="12.42" speedRelative="0.89" departed="0" arrived="0" entered="63" left="58" laneChangedFrom="0" laneChangedTo="0"/>
            <lane id="4si_2" sampledSeconds="3913.42" traveltime="97.41" overlapTraveltime="103.91" density="18.34" laneDensity="18.34" occupancy="9.08" waitingTime="2564.00" timeLoss="3255.19" speed="2.33" speedRelative="0.17" departed="0" arrived="0" entered="39" left="30" laneChangedFrom="0" laneChangedTo="0"/>
        </edge>
    </interval>
    <interval begin="900.00" end="1000.00" id="dump_900">
        <edge id="1fi" sampledSeconds="2421.20" traveltime="106.67" overlapTraveltime="109.11" density="97.43" laneDensity="97.43" occupancy="47.71" waitingTime="552.00" timeLoss="1917.27" speed="2.32" speedRelative="0.21" departed="2" arrived="1" entered="21" left="22" laneChangedFrom="0" laneChangedTo="0"/>
        <edge id="1o" sampledSeconds="1829.57" traveltime="70.55" overlapTraveltime="71.92" density="37.44" laneDensity="37.44" occupancy="18.49" waitingTime="102.00" timeLoss="699.29" speed="6.86" speedRelative="0.62" departed="0" arrived="0" entered="28" left="21" laneChangedFrom="0" laneChangedTo="0"/>
        <edge id="1si" sampledSeconds="3449.04" traveltime="154.06" overlapTraveltime="156.38" density="145.44" laneDensity="48.48" occupancy="24.00" waitingTime="1921.00" timeLoss="3063.59" speed="1.55" speedRelative="0.11" departed="0" arrived="0" entered="21" left="18" laneChangedFrom="0" laneChangedTo="0"/>
        <edge id="2fi" sampledSeconds="606.91" traveltime="24.67" overlapTraveltime="25.14" density="24.42" laneDensity="24.42" occupancy="12.03" waitingTime="0.00" timeLoss="59.24" speed="10.08" speedRelative="0.91" departed="10" arrived="1" entered="15" left="23" laneChangedFrom="0" laneChangedTo="0"/>
        <edge id="2o" sampledSeconds="937.12" traveltime="47.29" overlapTraveltime="47.79" density="19.18" laneDensity="19.18" occupancy="9.48" waitingTime="0.00" timeLoss="65.74" speed="10.33" speedRelative="0.93" departed="0" arrived="0" entered="24" left="16" laneChangedFrom="0" laneChangedTo="0"/>
        <edge id="2si" sampledSeconds="1012.58" traveltime="42.72" overlapTraveltime="44.71" density="42.70" laneDensity="14.23" occupancy="7.02" waitingTime="463.00" timeLoss="616.38" speed="5.42" speedRelative="0.39" departed="0" arrived="0" entered="23" left="19" laneChangedFrom="0" laneChangedTo="0"/>
        <edge id="3fi" sampledSeconds="957.97" traveltime="25.12" overlapTraveltime="25.59" density="38.55" laneDensity="38.55" occupancy="19.01" waitingTime="1.00" timeLoss="107.33" speed="9.91" speedRelative="0.89" departed="20" arrived="15" entered="18" left="23" laneChangedFrom="0" laneChangedTo="0"/>
        <edge id="3o" sampledSeconds="724.16" traveltime="47.22" overlapTraveltime="47.78" density="14.82" laneDensity="14.82" occupancy="7.31" waitingTime="0.00" timeLoss="50.78" speed="10.33" speedRelative="0.93" departed="0" arrived="0" entered="18" left="18" laneChangedFrom="0" laneChangedTo="0"/>
        <edge id="3si" sampledSeconds="1068.03" traveltime="47.95" overlapTraveltime="50.09" density="45.04" laneDensity="15.01" occupancy="7.38" waitingTime="499.00" timeLoss="694.54" speed="4.83" speedRelative="0.35" departed="0" arrived="0" entered="23" left="29" laneChangedFrom="0" laneChangedTo="0"/>
        <edge id="4fi" sampledSeconds="512.25" traveltime="23.82" overlapTraveltime="24.29" density="20.61" laneDensity="20.61" occupancy="10.10" waitingTime="0.00" timeLoss="34.01" speed="10.44" speedRelative="0.94" departed="0" arrived="0" entered="22" left="21" laneChangedFrom="0" laneChangedTo="0"/>
        <edge id="4o" sampledSeconds="1012.59" traveltime="47.11" overlapTraveltime="47.59" density="20.72" laneDensity="20.72" occupancy="10.25" waitingTime="0.00" timeLoss="67.24" speed="10.37" speedRelative="0.93" departed="0" arrived="0" entered="21" left="23" laneChangedFrom="0" laneChangedTo="0"/>
        <edge id="4si" sampledSeconds="1557.03" traveltime="63.75" overlapTraveltime="65.64" density="65.66" laneDensity="21.89" occupancy="10.83" waitingTime="868.00" timeLoss="1141.44" speed="3.69" speedRelative="0.27" departed="0" arrived="0" entered="21" left="31" laneChangedFrom="0" laneChangedTo="0"/>
    </interval>
</meandata>
