<?xml version="1.0" encoding="UTF-8"?>

<!-- generated on Wed Oct 11 21:43:25 2017 by SUMO Version dev-SVN-r24506
<?xml version="1.0" encoding="UTF-8"?>

<configuration xmlns:xsi="http://www.w3.org/2001/XMLSchema-instance" xsi:noNamespaceSchemaLocation="http://sumo.dlr.de/xsd/sumoConfiguration.xsd">

    <input>
        <net-file value="net.net.xml"/>
        <route-files value="input_routes.rou.xml"/>
        <additional-files value="input_additional.add.xml"/>
    </input>

    <time>
        <begin value="0"/>
        <end value="1000"/>
    </time>

    <report>
        <xml-validation value="never"/>
        <duration-log.disable value="true"/>
        <no-step-log value="true"/>
    </report>

</configuration>
-->

<meandata xmlns:xsi="http://www.w3.org/2001/XMLSchema-instance" xsi:noNamespaceSchemaLocation="http://sumo.dlr.de/xsd/meandata_file.xsd">
    <interval begin="0.00" end="300.00" id="dump_300">
        <edge id="1fi" sampledSeconds="676.57" traveltime="25.53" overlapTraveltime="26.02" density="9.08" occupancy="4.48" waitingTime="0.00" speed="9.74" departed="20" arrived="0" entered="11" left="21" laneChangedFrom="0" laneChangedTo="0"/>
        <edge id="1o" sampledSeconds="567.55" traveltime="47.12" overlapTraveltime="47.64" density="3.87" occupancy="1.92" waitingTime="0.00" speed="10.36" departed="0" arrived="0" entered="12" left="11" laneChangedFrom="0" laneChangedTo="0"/>
        <edge id="1si" sampledSeconds="755.29" traveltime="36.81" overlapTraveltime="38.61" density="10.62" occupancy="1.74" waitingTime="267.00" speed="6.27" departed="0" arrived="0" entered="21" left="14" laneChangedFrom="0" laneChangedTo="0"/>
        <edge id="2fi" sampledSeconds="683.33" traveltime="25.52" overlapTraveltime="25.98" density="9.17" occupancy="4.53" waitingTime="0.00" speed="9.76" departed="20" arrived="0" entered="9" left="25" laneChangedFrom="0" laneChangedTo="0"/>
        <edge id="2o" sampledSeconds="592.27" traveltime="47.18" overlapTraveltime="47.72" density="4.04" occupancy="1.99" waitingTime="0.00" speed="10.35" departed="0" arrived="0" entered="19" left="9" laneChangedFrom="0" laneChangedTo="0"/>
        <edge id="2si" sampledSeconds="833.41" traveltime="35.93" overlapTraveltime="36.61" density="11.71" occupancy="1.93" waitingTime="342.00" speed="6.61" departed="0" arrived="0" entered="25" left="12" laneChangedFrom="0" laneChangedTo="0"/>
        <edge id="3fi" sampledSeconds="986.71" traveltime="26.22" overlapTraveltime="26.69" density="13.24" occupancy="6.56" waitingTime="0.00" speed="9.50" departed="40" arrived="0" entered="0" left="36" laneChangedFrom="0" laneChangedTo="0"/>
        <edge id="3o" sampledSeconds="108.48" traveltime="47.13" overlapTraveltime="47.62" density="0.74" occupancy="0.37" waitingTime="0.00" speed="10.37" departed="0" arrived="0" entered="6" left="0" laneChangedFrom="0" laneChangedTo="0"/>
        <edge id="3si" sampledSeconds="1258.04" traveltime="37.01" overlapTraveltime="37.68" density="17.68" occupancy="2.91" waitingTime="505.00" speed="6.43" departed="0" arrived="0" entered="35" left="32" laneChangedFrom="0" laneChangedTo="0"/>
        <edge id="4fi" sampledSeconds="276.56" traveltime="23.74" overlapTraveltime="24.20" density="3.71" occupancy="1.82" waitingTime="0.00" speed="10.47" departed="0" arrived="0" entered="13" left="11" laneChangedFrom="0" laneChangedTo="0"/>
        <edge id="4o" sampledSeconds="985.96" traveltime="46.93" overlapTraveltime="47.42" density="6.73" occupancy="3.33" waitingTime="0.00" speed="10.41" departed="0" arrived="0" entered="28" left="14" laneChangedFrom="0" laneChangedTo="0"/>
        <edge id="4si" sampledSeconds="354.90" traveltime="30.03" overlapTraveltime="32.47" density="4.99" occupancy="0.82" waitingTime="110.00" speed="7.46" departed="0" arrived="0" entered="11" left="10" laneChangedFrom="0" laneChangedTo="0"/>
    </interval>
    <interval begin="0.00" end="300.00" id="dump_300">
        <edge id="1fi">
            <lane id="1fi_0" sampledSeconds="676.57" traveltime="25.53" overlapTraveltime="26.02" density="9.08" occupancy="4.48" waitingTime="0.00" speed="9.74" departed="20" arrived="0" entered="11" left="21" laneChangedFrom="0" laneChangedTo="0"/>
        </edge>
        <edge id="1o">
            <lane id="1o_0" sampledSeconds="567.55" traveltime="47.12" overlapTraveltime="47.64" density="3.87" occupancy="1.92" waitingTime="0.00" speed="10.36" departed="0" arrived="0" entered="12" left="11" laneChangedFrom="0" laneChangedTo="0"/>
        </edge>
        <edge id="1si">
            <lane id="1si_0" sampledSeconds="0.00" departed="0" arrived="0" entered="0" left="0" laneChangedFrom="0" laneChangedTo="0"/>
            <lane id="1si_1" sampledSeconds="98.17" traveltime="32.49" overlapTraveltime="32.99" density="1.38" occupancy="0.68" waitingTime="41.00" speed="7.34" departed="0" arrived="0" entered="3" left="2" laneChangedFrom="0" laneChangedTo="0"/>
            <lane id="1si_2" sampledSeconds="657.12" traveltime="37.59" overlapTraveltime="39.62" density="9.24" occupancy="4.54" waitingTime="226.00" speed="6.11" departed="0" arrived="0" entered="18" left="12" laneChangedFrom="0" laneChangedTo="0"/>
        </edge>
        <edge id="2fi">
            <lane id="2fi_0" sampledSeconds="683.33" traveltime="25.52" overlapTraveltime="25.98" density="9.17" occupancy="4.53" waitingTime="0.00" speed="9.76" departed="20" arrived="0" entered="9" left="25" laneChangedFrom="0" laneChangedTo="0"/>
        </edge>
        <edge id="2o">
            <lane id="2o_0" sampledSeconds="592.27" traveltime="47.18" overlapTraveltime="47.72" density="4.04" occupancy="1.99" waitingTime="0.00" speed="10.35" departed="0" arrived="0" entered="19" left="9" laneChangedFrom="0" laneChangedTo="0"/>
        </edge>
        <edge id="2si">
            <lane id="2si_0" sampledSeconds="258.84" traveltime="41.05" overlapTraveltime="41.91" density="3.64" occupancy="1.81" waitingTime="123.00" speed="5.78" departed="0" arrived="0" entered="7" left="0" laneChangedFrom="0" laneChangedTo="0"/>
            <lane id="2si_1" sampledSeconds="574.57" traveltime="34.00" overlapTraveltime="34.64" density="8.08" occupancy="3.99" waitingTime="219.00" speed="6.99" departed="0" arrived="0" entered="18" left="12" laneChangedFrom="0" laneChangedTo="0"/>
            <lane id="2si_2" sampledSeconds="0.00" departed="0" arrived="0" entered="0" left="0" laneChangedFrom="0" laneChangedTo="0"/>
        </edge>
        <edge id="3fi">
            <lane id="3fi_0" sampledSeconds="986.71" traveltime="26.22" overlapTraveltime="26.69" density="13.24" occupancy="6.56" waitingTime="0.00" speed="9.50" departed="40" arrived="0" entered="0" left="36" laneChangedFrom="0" laneChangedTo="0"/>
        </edge>
        <edge id="3o">
            <lane id="3o_0" sampledSeconds="108.48" traveltime="47.13" overlapTraveltime="47.62" density="0.74" occupancy="0.37" waitingTime="0.00" speed="10.37" departed="0" arrived="0" entered="6" left="0" laneChangedFrom="0" laneChangedTo="0"/>
        </edge>
        <edge id="3si">
            <lane id="3si_0" sampledSeconds="651.52" traveltime="37.93" overlapTraveltime="38.61" density="9.16" occupancy="4.52" waitingTime="267.00" speed="6.27" departed="0" arrived="0" entered="18" left="16" laneChangedFrom="0" laneChangedTo="0"/>
            <lane id="3si_1" sampledSeconds="606.52" traveltime="36.07" overlapTraveltime="36.72" density="8.53" occupancy="4.20" waitingTime="238.00" speed="6.59" departed="0" arrived="0" entered="17" left="16" laneChangedFrom="0" laneChangedTo="0"/>
            <lane id="3si_2" sampledSeconds="0.00" departed="0" arrived="0" entered="0" left="0" laneChangedFrom="0" laneChangedTo="0"/>
        </edge>
        <edge id="4fi">
            <lane id="4fi_0" sampledSeconds="276.56" traveltime="23.74" overlapTraveltime="24.20" density="3.71" occupancy="1.82" waitingTime="0.00" speed="10.47" departed="0" arrived="0" entered="13" left="11" laneChangedFrom="0" laneChangedTo="0"/>
        </edge>
        <edge id="4o">
            <lane id="4o_0" sampledSeconds="985.96" traveltime="46.93" overlapTraveltime="47.42" density="6.73" occupancy="3.33" waitingTime="0.00" speed="10.41" departed="0" arrived="0" entered="28" left="14" laneChangedFrom="0" laneChangedTo="0"/>
        </edge>
        <edge id="4si">
            <lane id="4si_0" sampledSeconds="0.00" departed="0" arrived="0" entered="0" left="0" laneChangedFrom="0" laneChangedTo="0"/>
            <lane id="4si_1" sampledSeconds="129.29" traveltime="18.05" overlapTraveltime="18.47" density="1.82" occupancy="0.89" waitingTime="0.00" speed="13.11" departed="0" arrived="0" entered="7" left="7" laneChangedFrom="0" laneChangedTo="0"/>
            <lane id="4si_2" sampledSeconds="225.61" traveltime="51.16" overlapTraveltime="57.42" density="3.17" occupancy="1.56" waitingTime="110.00" speed="4.22" departed="0" arrived="0" entered="4" left="3" laneChangedFrom="0" laneChangedTo="0"/>
        </edge>
    </interval>
    <interval begin="900.00" end="1000.00" id="dump_300">
        <edge id="1fi" sampledSeconds="930.58" traveltime="24.62" overlapTraveltime="25.09" density="37.45" occupancy="18.43" waitingTime="0.00" speed="10.10" departed="11" arrived="9" entered="26" left="28" laneChangedFrom="0" laneChangedTo="0"/>
        <edge id="1o" sampledSeconds="1341.04" traveltime="47.07" overlapTraveltime="47.59" density="27.44" occupancy="13.57" waitingTime="0.00" speed="10.37" departed="0" arrived="0" entered="31" left="26" laneChangedFrom="0" laneChangedTo="0"/>
        <edge id="1si" sampledSeconds="3051.22" traveltime="104.83" overlapTraveltime="106.57" density="128.66" occupancy="21.33" waitingTime="1664.00" speed="2.27" departed="0" arrived="0" entered="28" left="24" laneChangedFrom="0" laneChangedTo="0"/>
        <edge id="2fi" sampledSeconds="859.31" traveltime="24.64" overlapTraveltime="25.12" density="34.58" occupancy="17.01" waitingTime="0.00" speed="10.09" departed="11" arrived="8" entered="23" left="27" laneChangedFrom="0" laneChangedTo="0"/>
        <edge id="2o" sampledSeconds="1132.51" traveltime="47.33" overlapTraveltime="47.87" density="23.18" occupancy="11.46" waitingTime="0.00" speed="10.31" departed="0" arrived="0" entered="26" left="23" laneChangedFrom="0" laneChangedTo="0"/>
        <edge id="2si" sampledSeconds="1496.44" traveltime="52.42" overlapTraveltime="53.97" density="63.10" occupancy="10.40" waitingTime="710.00" speed="4.49" departed="0" arrived="0" entered="27" left="22" laneChangedFrom="0" laneChangedTo="0"/>
        <edge id="3fi" sampledSeconds="983.78" traveltime="25.00" overlapTraveltime="25.47" density="39.59" occupancy="19.49" waitingTime="0.00" speed="9.95" departed="16" arrived="13" entered="23" left="26" laneChangedFrom="0" laneChangedTo="0"/>
        <edge id="3o" sampledSeconds="1137.14" traveltime="47.21" overlapTraveltime="47.75" density="23.27" occupancy="11.51" waitingTime="0.00" speed="10.34" departed="0" arrived="0" entered="23" left="23" laneChangedFrom="0" laneChangedTo="0"/>
        <edge id="3si" sampledSeconds="1177.65" traveltime="47.55" overlapTraveltime="49.29" density="49.66" occupancy="8.14" waitingTime="504.00" speed="4.91" departed="0" arrived="0" entered="26" left="32" laneChangedFrom="0" laneChangedTo="0"/>
        <edge id="4fi" sampledSeconds="524.92" traveltime="23.83" overlapTraveltime="24.29" density="21.12" occupancy="10.35" waitingTime="0.00" speed="10.44" departed="0" arrived="0" entered="23" left="22" laneChangedFrom="0" laneChangedTo="0"/>
        <edge id="4o" sampledSeconds="975.50" traveltime="46.98" overlapTraveltime="47.47" density="19.96" occupancy="9.87" waitingTime="0.00" speed="10.40" departed="0" arrived="0" entered="20" left="24" laneChangedFrom="0" laneChangedTo="0"/>
        <edge id="4si" sampledSeconds="1074.99" traveltime="45.34" overlapTraveltime="47.35" density="45.33" occupancy="7.44" waitingTime="463.00" speed="5.11" departed="0" arrived="0" entered="22" left="28" laneChangedFrom="0" laneChangedTo="0"/>
    </interval>
</meandata>
