<?xml version="1.0" encoding="UTF-8"?>

<!-- generated on 2022-10-26 20:32:11 by Eclipse SUMO sumo Version v1_14_1+1635-30347d4bd51
This data file and the accompanying materials
are made available under the terms of the Eclipse Public License v2.0
which accompanies this distribution, and is available at
http://www.eclipse.org/legal/epl-v20.html
This file may also be made available under the following Secondary
Licenses when the conditions for such availability set forth in the Eclipse
Public License 2.0 are satisfied: GNU General Public License, version 2
or later which is available at
https://www.gnu.org/licenses/old-licenses/gpl-2.0-standalone.html
SPDX-License-Identifier: EPL-2.0 OR GPL-2.0-or-later
<configuration xmlns:xsi="http://www.w3.org/2001/XMLSchema-instance" xsi:noNamespaceSchemaLocation="http://sumo.dlr.de/xsd/sumoConfiguration.xsd">

    <input>
        <net-file value="net.net.xml"/>
        <route-files value="input_routes.rou.xml"/>
    </input>

    <output>
        <write-license value="true"/>
        <fcd-output value="fcd.xml"/>
    </output>

    <time>
        <begin value="0"/>
        <end value="3000"/>
    </time>

    <processing>
        <default.speeddev value="0"/>
    </processing>

    <report>
        <xml-validation value="never"/>
        <duration-log.disable value="true"/>
        <no-step-log value="true"/>
    </report>

</configuration>
-->

<fcd-export xmlns:xsi="http://www.w3.org/2001/XMLSchema-instance" xsi:noNamespaceSchemaLocation="http://sumo.dlr.de/xsd/fcd_file.xsd">
    <timestep time="0.00">
        <vehicle id="r0" x="207.09" y="0.31" z="1.04" angle="89.46" type="0" speed="0.00" pos="207.10" lane="e0_0" slope="0.29"/>
    </timestep>
    <timestep time="1.00">
        <vehicle id="r0" x="207.67" y="0.31" z="1.04" angle="89.46" type="0" speed="0.58" pos="207.68" lane="e0_0" slope="0.29"/>
    </timestep>
    <timestep time="2.00">
        <vehicle id="r0" x="208.83" y="0.32" z="1.04" angle="89.46" type="0" speed="1.16" pos="208.83" lane="e0_0" slope="0.29"/>
    </timestep>
    <timestep time="3.00">
        <vehicle id="r0" x="210.56" y="0.34" z="1.05" angle="89.46" type="0" speed="1.73" pos="210.57" lane="e0_0" slope="0.29"/>
    </timestep>
    <timestep time="4.00">
        <vehicle id="r0" x="212.87" y="0.36" z="1.07" angle="89.46" type="0" speed="2.31" pos="212.88" lane="e0_0" slope="0.29"/>
    </timestep>
    <timestep time="5.00">
        <vehicle id="r0" x="215.76" y="0.39" z="1.08" angle="89.46" type="0" speed="2.89" pos="215.77" lane="e0_0" slope="0.29"/>
    </timestep>
    <timestep time="6.00">
        <vehicle id="r0" x="219.23" y="0.42" z="1.10" angle="89.46" type="0" speed="3.47" pos="219.24" lane="e0_0" slope="0.29"/>
    </timestep>
    <timestep time="7.00">
        <vehicle id="r0" x="223.27" y="0.46" z="1.12" angle="89.46" type="0" speed="4.04" pos="223.28" lane="e0_0" slope="0.29"/>
    </timestep>
    <timestep time="8.00">
        <vehicle id="r0" x="227.89" y="0.50" z="1.14" angle="89.46" type="0" speed="4.62" pos="227.90" lane="e0_0" slope="0.29"/>
    </timestep>
    <timestep time="9.00">
        <vehicle id="r0" x="233.09" y="0.55" z="1.17" angle="89.46" type="0" speed="5.20" pos="233.10" lane="e0_0" slope="0.29"/>
    </timestep>
    <timestep time="10.00">
        <vehicle id="r0" x="238.86" y="0.61" z="1.20" angle="89.46" type="0" speed="5.77" pos="238.87" lane="e0_0" slope="0.29"/>
    </timestep>
    <timestep time="11.00">
        <vehicle id="r0" x="245.21" y="0.67" z="1.23" angle="89.46" type="0" speed="6.35" pos="245.22" lane="e0_0" slope="0.29"/>
    </timestep>
    <timestep time="12.00">
        <vehicle id="r0" x="252.13" y="0.73" z="1.26" angle="89.46" type="0" speed="6.92" pos="252.14" lane="e0_0" slope="0.29"/>
    </timestep>
    <timestep time="13.00">
        <vehicle id="r0" x="259.63" y="0.80" z="1.30" angle="89.46" type="0" speed="7.50" pos="259.64" lane="e0_0" slope="0.29"/>
    </timestep>
    <timestep time="14.00">
        <vehicle id="r0" x="267.70" y="0.88" z="1.34" angle="89.46" type="0" speed="8.07" pos="267.72" lane="e0_0" slope="0.29"/>
    </timestep>
    <timestep time="15.00">
        <vehicle id="r0" x="276.35" y="0.96" z="1.38" angle="89.46" type="0" speed="8.65" pos="276.36" lane="e0_0" slope="0.29"/>
    </timestep>
    <timestep time="16.00">
        <vehicle id="r0" x="285.57" y="1.05" z="1.43" angle="89.46" type="0" speed="9.22" pos="285.59" lane="e0_0" slope="0.29"/>
    </timestep>
    <timestep time="17.00">
        <vehicle id="r0" x="295.37" y="1.14" z="1.48" angle="89.46" type="0" speed="9.80" pos="295.38" lane="e0_0" slope="0.29"/>
    </timestep>
    <timestep time="18.00">
        <vehicle id="r0" x="305.73" y="1.24" z="1.53" angle="89.46" type="0" speed="10.37" pos="305.75" lane="e0_0" slope="0.29"/>
    </timestep>
    <timestep time="19.00">
        <vehicle id="r0" x="316.67" y="1.34" z="1.58" angle="89.46" type="0" speed="10.94" pos="316.69" lane="e0_0" slope="0.29"/>
    </timestep>
    <timestep time="20.00">
        <vehicle id="r0" x="328.18" y="1.45" z="1.64" angle="89.46" type="0" speed="11.51" pos="328.21" lane="e0_0" slope="0.29"/>
    </timestep>
    <timestep time="21.00">
        <vehicle id="r0" x="340.27" y="1.56" z="1.70" angle="89.46" type="0" speed="12.09" pos="340.29" lane="e0_0" slope="0.29"/>
    </timestep>
    <timestep time="22.00">
        <vehicle id="r0" x="352.92" y="1.68" z="1.77" angle="89.46" type="0" speed="12.66" pos="352.95" lane="e0_0" slope="0.29"/>
    </timestep>
    <timestep time="23.00">
        <vehicle id="r0" x="366.15" y="1.81" z="1.83" angle="89.46" type="0" speed="13.23" pos="366.17" lane="e0_0" slope="0.29"/>
    </timestep>
    <timestep time="24.00">
        <vehicle id="r0" x="379.94" y="1.94" z="1.90" angle="89.46" type="0" speed="13.80" pos="379.97" lane="e0_0" slope="0.29"/>
    </timestep>
    <timestep time="25.00">
        <vehicle id="r0" x="394.31" y="2.08" z="1.97" angle="89.46" type="0" speed="14.37" pos="394.34" lane="e0_0" slope="0.29"/>
    </timestep>
    <timestep time="26.00">
        <vehicle id="r0" x="409.24" y="2.22" z="2.05" angle="89.46" type="0" speed="14.93" pos="409.27" lane="e0_0" slope="0.29"/>
    </timestep>
    <timestep time="27.00">
        <vehicle id="r0" x="424.74" y="2.36" z="2.13" angle="89.46" type="0" speed="15.50" pos="424.77" lane="e0_0" slope="0.29"/>
    </timestep>
    <timestep time="28.00">
        <vehicle id="r0" x="440.81" y="2.51" z="2.21" angle="89.46" type="0" speed="16.07" pos="440.84" lane="e0_0" slope="0.29"/>
    </timestep>
    <timestep time="29.00">
        <vehicle id="r0" x="457.44" y="2.67" z="2.29" angle="89.46" type="0" speed="16.64" pos="457.48" lane="e0_0" slope="0.29"/>
    </timestep>
    <timestep time="30.00">
        <vehicle id="r0" x="474.64" y="2.83" z="2.38" angle="89.46" type="0" speed="17.20" pos="474.68" lane="e0_0" slope="0.29"/>
    </timestep>
    <timestep time="31.00">
        <vehicle id="r0" x="492.40" y="3.00" z="2.46" angle="89.46" type="0" speed="17.76" pos="492.45" lane="e0_0" slope="0.29"/>
    </timestep>
    <timestep time="32.00">
        <vehicle id="r0" x="510.72" y="3.17" z="2.56" angle="89.46" type="0" speed="18.32" pos="510.77" lane="e0_0" slope="0.29"/>
    </timestep>
    <timestep time="33.00">
        <vehicle id="r0" x="529.59" y="3.35" z="2.65" angle="89.46" type="0" speed="18.87" pos="529.63" lane="e0_0" slope="0.29"/>
    </timestep>
    <timestep time="34.00">
        <vehicle id="r0" x="549.00" y="3.54" z="2.75" angle="89.46" type="0" speed="19.41" pos="549.05" lane="e0_0" slope="0.29"/>
    </timestep>
    <timestep time="35.00">
        <vehicle id="r0" x="568.95" y="3.73" z="2.85" angle="89.46" type="0" speed="19.95" pos="569.00" lane="e0_0" slope="0.29"/>
    </timestep>
    <timestep time="36.00">
        <vehicle id="r0" x="589.43" y="3.92" z="2.95" angle="89.46" type="0" speed="20.48" pos="589.48" lane="e0_0" slope="0.29"/>
    </timestep>
    <timestep time="37.00">
        <vehicle id="r0" x="610.41" y="4.12" z="3.05" angle="89.46" type="0" speed="20.99" pos="610.47" lane="e0_0" slope="0.29"/>
    </timestep>
    <timestep time="38.00">
        <vehicle id="r0" x="631.89" y="4.32" z="3.16" angle="89.46" type="0" speed="21.48" pos="631.95" lane="e0_0" slope="0.29"/>
    </timestep>
    <timestep time="39.00">
        <vehicle id="r0" x="653.85" y="4.53" z="3.27" angle="89.46" type="0" speed="21.96" pos="653.91" lane="e0_0" slope="0.29"/>
    </timestep>
    <timestep time="40.00">
        <vehicle id="r0" x="676.27" y="4.74" z="3.38" angle="89.46" type="0" speed="22.43" pos="676.34" lane="e0_0" slope="0.29"/>
    </timestep>
    <timestep time="41.00">
        <vehicle id="r0" x="699.15" y="4.96" z="3.50" angle="89.46" type="0" speed="22.88" pos="699.22" lane="e0_0" slope="0.29"/>
    </timestep>
    <timestep time="42.00">
        <vehicle id="r0" x="722.47" y="5.18" z="3.62" angle="89.46" type="0" speed="23.32" pos="722.54" lane="e0_0" slope="0.29"/>
    </timestep>
    <timestep time="43.00">
        <vehicle id="r0" x="746.22" y="5.40" z="3.73" angle="89.46" type="0" speed="23.75" pos="746.29" lane="e0_0" slope="0.29"/>
    </timestep>
    <timestep time="44.00">
        <vehicle id="r0" x="770.39" y="5.63" z="3.85" angle="89.46" type="0" speed="24.18" pos="770.47" lane="e0_0" slope="0.29"/>
    </timestep>
    <timestep time="45.00">
        <vehicle id="r0" x="794.97" y="5.86" z="3.98" angle="89.46" type="0" speed="24.59" pos="795.05" lane="e0_0" slope="0.29"/>
    </timestep>
    <timestep time="46.00">
        <vehicle id="r0" x="819.96" y="6.10" z="4.10" angle="89.46" type="0" speed="24.99" pos="820.04" lane="e0_0" slope="0.29"/>
    </timestep>
    <timestep time="47.00">
        <vehicle id="r0" x="845.34" y="6.34" z="4.23" angle="89.46" type="0" speed="25.38" pos="845.42" lane="e0_0" slope="0.29"/>
    </timestep>
    <timestep time="48.00">
        <vehicle id="r0" x="871.10" y="6.58" z="4.36" angle="89.46" type="0" speed="25.76" pos="871.19" lane="e0_0" slope="0.29"/>
    </timestep>
    <timestep time="49.00">
        <vehicle id="r0" x="897.24" y="6.83" z="4.49" angle="89.46" type="0" speed="26.14" pos="897.33" lane="e0_0" slope="0.29"/>
    </timestep>
    <timestep time="50.00">
        <vehicle id="r0" x="923.75" y="7.08" z="4.62" angle="89.46" type="0" speed="26.51" pos="923.84" lane="e0_0" slope="0.29"/>
    </timestep>
    <timestep time="51.00">
        <vehicle id="r0" x="950.62" y="7.33" z="4.76" angle="89.46" type="0" speed="26.87" pos="950.72" lane="e0_0" slope="0.29"/>
    </timestep>
    <timestep time="52.00">
        <vehicle id="r0" x="977.84" y="7.59" z="4.89" angle="89.46" type="0" speed="27.23" pos="977.95" lane="e0_0" slope="0.29"/>
    </timestep>
    <timestep time="53.00">
        <vehicle id="r0" x="1005.42" y="7.85" z="5.03" angle="89.46" type="0" speed="27.58" pos="1005.53" lane="e0_0" slope="0.29"/>
    </timestep>
    <timestep time="54.00">
        <vehicle id="r0" x="1033.34" y="8.11" z="5.17" angle="89.46" type="0" speed="27.92" pos="1033.45" lane="e0_0" slope="0.29"/>
    </timestep>
    <timestep time="55.00">
        <vehicle id="r0" x="1061.59" y="8.38" z="5.31" angle="89.46" type="0" speed="28.26" pos="1061.71" lane="e0_0" slope="0.29"/>
    </timestep>
    <timestep time="56.00">
        <vehicle id="r0" x="1090.18" y="8.65" z="5.46" angle="89.46" type="0" speed="28.59" pos="1090.29" lane="e0_0" slope="0.29"/>
    </timestep>
    <timestep time="57.00">
        <vehicle id="r0" x="1119.09" y="8.92" z="5.60" angle="89.46" type="0" speed="28.91" pos="1119.21" lane="e0_0" slope="0.29"/>
    </timestep>
    <timestep time="58.00">
        <vehicle id="r0" x="1148.32" y="9.20" z="5.75" angle="89.46" type="0" speed="29.24" pos="1148.44" lane="e0_0" slope="0.29"/>
    </timestep>
    <timestep time="59.00">
        <vehicle id="r0" x="1177.87" y="9.48" z="5.89" angle="89.46" type="0" speed="29.55" pos="1178.00" lane="e0_0" slope="0.29"/>
    </timestep>
    <timestep time="60.00">
        <vehicle id="r0" x="1207.72" y="9.76" z="6.04" angle="89.46" type="0" speed="29.86" pos="1207.86" lane="e0_0" slope="0.29"/>
    </timestep>
    <timestep time="61.00">
        <vehicle id="r0" x="1237.89" y="10.04" z="6.19" angle="89.46" type="0" speed="30.17" pos="1238.02" lane="e0_0" slope="0.29"/>
    </timestep>
    <timestep time="62.00">
        <vehicle id="r0" x="1268.35" y="10.33" z="6.35" angle="89.46" type="0" speed="30.47" pos="1268.49" lane="e0_0" slope="0.29"/>
    </timestep>
    <timestep time="63.00">
        <vehicle id="r0" x="1299.10" y="10.62" z="6.50" angle="89.46" type="0" speed="30.76" pos="1299.25" lane="e0_0" slope="0.29"/>
    </timestep>
    <timestep time="64.00">
        <vehicle id="r0" x="1330.15" y="10.92" z="6.66" angle="89.46" type="0" speed="31.05" pos="1330.30" lane="e0_0" slope="0.29"/>
    </timestep>
    <timestep time="65.00">
        <vehicle id="r0" x="1361.49" y="11.21" z="6.81" angle="89.46" type="0" speed="31.34" pos="1361.64" lane="e0_0" slope="0.29"/>
    </timestep>
    <timestep time="66.00">
        <vehicle id="r0" x="1393.11" y="11.51" z="6.97" angle="89.46" type="0" speed="31.62" pos="1393.26" lane="e0_0" slope="0.29"/>
    </timestep>
    <timestep time="67.00">
        <vehicle id="r0" x="1425.00" y="11.81" z="7.13" angle="89.46" type="0" speed="31.90" pos="1425.16" lane="e0_0" slope="0.29"/>
    </timestep>
    <timestep time="68.00">
        <vehicle id="r0" x="1457.18" y="12.12" z="7.29" angle="89.46" type="0" speed="32.18" pos="1457.34" lane="e0_0" slope="0.29"/>
    </timestep>
    <timestep time="69.00">
        <vehicle id="r0" x="1489.62" y="12.42" z="7.45" angle="89.46" type="0" speed="32.45" pos="1489.79" lane="e0_0" slope="0.29"/>
    </timestep>
    <timestep time="70.00">
        <vehicle id="r0" x="1522.33" y="12.73" z="7.62" angle="89.46" type="0" speed="32.72" pos="1522.50" lane="e0_0" slope="0.29"/>
    </timestep>
    <timestep time="71.00">
        <vehicle id="r0" x="1555.31" y="13.04" z="7.78" angle="89.46" type="0" speed="32.98" pos="1555.48" lane="e0_0" slope="0.29"/>
    </timestep>
    <timestep time="72.00">
        <vehicle id="r0" x="1588.55" y="13.36" z="7.95" angle="89.46" type="0" speed="33.24" pos="1588.73" lane="e0_0" slope="0.29"/>
    </timestep>
    <timestep time="73.00">
        <vehicle id="r0" x="1622.04" y="13.67" z="8.12" angle="89.46" type="0" speed="33.50" pos="1622.23" lane="e0_0" slope="0.29"/>
    </timestep>
    <timestep time="74.00">
        <vehicle id="r0" x="1655.79" y="13.99" z="8.29" angle="89.46" type="0" speed="33.75" pos="1655.98" lane="e0_0" slope="0.29"/>
    </timestep>
    <timestep time="75.00">
        <vehicle id="r0" x="1689.79" y="14.31" z="8.46" angle="89.46" type="0" speed="34.00" pos="1689.98" lane="e0_0" slope="0.29"/>
    </timestep>
    <timestep time="76.00">
        <vehicle id="r0" x="1724.04" y="14.64" z="8.63" angle="89.46" type="0" speed="34.25" pos="1724.23" lane="e0_0" slope="0.29"/>
    </timestep>
    <timestep time="77.00">
        <vehicle id="r0" x="1758.53" y="14.96" z="8.80" angle="89.46" type="0" speed="34.50" pos="1758.73" lane="e0_0" slope="0.29"/>
    </timestep>
    <timestep time="78.00">
        <vehicle id="r0" x="1793.26" y="15.29" z="8.97" angle="89.46" type="0" speed="34.74" pos="1793.47" lane="e0_0" slope="0.29"/>
    </timestep>
    <timestep time="79.00">
        <vehicle id="r0" x="1828.24" y="15.62" z="9.15" angle="89.46" type="0" speed="34.98" pos="1828.45" lane="e0_0" slope="0.29"/>
    </timestep>
    <timestep time="80.00">
        <vehicle id="r0" x="1863.45" y="15.96" z="9.32" angle="89.46" type="0" speed="35.21" pos="1863.66" lane="e0_0" slope="0.29"/>
    </timestep>
    <timestep time="81.00">
        <vehicle id="r0" x="1898.89" y="16.29" z="9.50" angle="89.46" type="0" speed="35.45" pos="1899.10" lane="e0_0" slope="0.29"/>
    </timestep>
    <timestep time="82.00">
        <vehicle id="r0" x="1934.56" y="16.63" z="9.68" angle="89.46" type="0" speed="35.68" pos="1934.78" lane="e0_0" slope="0.29"/>
    </timestep>
    <timestep time="83.00">
        <vehicle id="r0" x="1970.46" y="16.97" z="9.86" angle="89.46" type="0" speed="35.90" pos="1970.68" lane="e0_0" slope="0.29"/>
    </timestep>
    <timestep time="84.00">
        <vehicle id="r0" x="1999.50" y="17.23" z="10.00" angle="89.46" type="0" speed="36.13" pos="8.19" lane="e1_0" slope="0.28"/>
    </timestep>
    <timestep time="85.00">
        <vehicle id="r0" x="2003.13" y="17.21" z="9.98" angle="89.48" type="0" speed="36.35" pos="44.54" lane="e1_0" slope="0.27"/>
    </timestep>
    <timestep time="86.00">
        <vehicle id="r0" x="2006.79" y="17.20" z="9.96" angle="89.51" type="0" speed="36.57" pos="81.11" lane="e1_0" slope="0.25"/>
    </timestep>
    <timestep time="87.00">
        <vehicle id="r0" x="2010.46" y="17.19" z="9.94" angle="89.55" type="0" speed="36.79" pos="117.91" lane="e1_0" slope="0.22"/>
    </timestep>
    <timestep time="88.00">
        <vehicle id="r0" x="2014.16" y="17.17" z="9.92" angle="89.63" type="0" speed="37.02" pos="154.93" lane="e1_0" slope="0.15"/>
    </timestep>
    <timestep time="89.00">
        <vehicle id="r0" x="2017.89" y="17.16" z="9.90" angle="89.89" type="0" speed="37.25" pos="192.18" lane="e1_0" slope="-0.04"/>
    </timestep>
    <timestep time="90.00">
        <vehicle id="r0" x="2021.63" y="17.14" z="9.89" angle="90.21" type="0" speed="37.51" pos="229.69" lane="e1_0" slope="-0.29"/>
    </timestep>
    <timestep time="91.00">
        <vehicle id="r0" x="2025.41" y="17.13" z="9.87" angle="90.21" type="0" speed="37.81" pos="267.50" lane="e1_0" slope="-0.29"/>
    </timestep>
    <timestep time="92.00">
        <vehicle id="r0" x="2029.22" y="17.12" z="9.85" angle="90.21" type="0" speed="38.10" pos="305.60" lane="e1_0" slope="-0.29"/>
    </timestep>
    <timestep time="93.00">
        <vehicle id="r0" x="2033.06" y="17.10" z="9.83" angle="90.21" type="0" speed="38.39" pos="344.00" lane="e1_0" slope="-0.29"/>
    </timestep>
    <timestep time="94.00">
        <vehicle id="r0" x="2036.92" y="17.09" z="9.81" angle="90.21" type="0" speed="38.68" pos="382.67" lane="e1_0" slope="-0.29"/>
    </timestep>
    <timestep time="95.00">
        <vehicle id="r0" x="2040.82" y="17.07" z="9.79" angle="90.21" type="0" speed="38.96" pos="421.63" lane="e1_0" slope="-0.29"/>
    </timestep>
    <timestep time="96.00">
        <vehicle id="r0" x="2044.74" y="17.06" z="9.77" angle="90.21" type="0" speed="39.24" pos="460.88" lane="e1_0" slope="-0.29"/>
    </timestep>
    <timestep time="97.00">
        <vehicle id="r0" x="2048.69" y="17.04" z="9.75" angle="90.21" type="0" speed="39.52" pos="500.39" lane="e1_0" slope="-0.29"/>
    </timestep>
    <timestep time="98.00">
        <vehicle id="r0" x="2052.66" y="17.03" z="9.73" angle="90.21" type="0" speed="39.79" pos="540.19" lane="e1_0" slope="-0.29"/>
    </timestep>
    <timestep time="99.00">
        <vehicle id="r0" x="2056.67" y="17.01" z="9.71" angle="90.21" type="0" speed="40.07" pos="580.25" lane="e1_0" slope="-0.29"/>
    </timestep>
    <timestep time="100.00">
        <vehicle id="r0" x="2060.70" y="17.00" z="9.69" angle="90.21" type="0" speed="40.33" pos="620.59" lane="e1_0" slope="-0.29"/>
    </timestep>
    <timestep time="101.00">
        <vehicle id="r0" x="2064.75" y="16.98" z="9.67" angle="90.21" type="0" speed="40.60" pos="661.19" lane="e1_0" slope="-0.29"/>
    </timestep>
    <timestep time="102.00">
        <vehicle id="r0" x="2068.84" y="16.97" z="9.65" angle="90.21" type="0" speed="40.86" pos="702.05" lane="e1_0" slope="-0.29"/>
    </timestep>
    <timestep time="103.00">
        <vehicle id="r0" x="2072.95" y="16.95" z="9.63" angle="90.21" type="0" speed="41.13" pos="743.18" lane="e1_0" slope="-0.29"/>
    </timestep>
    <timestep time="104.00">
        <vehicle id="r0" x="2077.08" y="16.94" z="9.61" angle="90.21" type="0" speed="41.38" pos="784.56" lane="e1_0" slope="-0.29"/>
    </timestep>
    <timestep time="105.00">
        <vehicle id="r0" x="2081.24" y="16.92" z="9.59" angle="90.21" type="0" speed="41.64" pos="826.20" lane="e1_0" slope="-0.29"/>
    </timestep>
    <timestep time="106.00">
        <vehicle id="r0" x="2085.43" y="16.91" z="9.57" angle="90.21" type="0" speed="41.89" pos="868.09" lane="e1_0" slope="-0.29"/>
    </timestep>
    <timestep time="107.00">
        <vehicle id="r0" x="2089.64" y="16.89" z="9.54" angle="90.21" type="0" speed="42.14" pos="910.24" lane="e1_0" slope="-0.29"/>
    </timestep>
    <timestep time="108.00">
        <vehicle id="r0" x="2093.88" y="16.87" z="9.52" angle="90.21" type="0" speed="42.39" pos="952.63" lane="e1_0" slope="-0.29"/>
    </timestep>
    <timestep time="109.00">
        <vehicle id="r0" x="2098.14" y="16.86" z="9.50" angle="90.21" type="0" speed="42.64" pos="995.26" lane="e1_0" slope="-0.29"/>
    </timestep>
    <timestep time="110.00">
        <vehicle id="r0" x="2102.42" y="16.84" z="9.48" angle="90.21" type="0" speed="42.88" pos="1038.14" lane="e1_0" slope="-0.29"/>
    </timestep>
    <timestep time="111.00">
        <vehicle id="r0" x="2106.73" y="16.83" z="9.46" angle="90.21" type="0" speed="43.12" pos="1081.26" lane="e1_0" slope="-0.29"/>
    </timestep>
    <timestep time="112.00">
        <vehicle id="r0" x="2111.07" y="16.81" z="9.44" angle="90.21" type="0" speed="43.36" pos="1124.62" lane="e1_0" slope="-0.29"/>
    </timestep>
    <timestep time="113.00">
        <vehicle id="r0" x="2115.42" y="16.79" z="9.42" angle="90.21" type="0" speed="43.60" pos="1168.22" lane="e1_0" slope="-0.29"/>
    </timestep>
    <timestep time="114.00">
        <vehicle id="r0" x="2119.80" y="16.78" z="9.39" angle="90.21" type="0" speed="43.83" pos="1212.05" lane="e1_0" slope="-0.29"/>
    </timestep>
    <timestep time="115.00">
        <vehicle id="r0" x="2124.21" y="16.76" z="9.37" angle="90.21" type="0" speed="44.06" pos="1256.11" lane="e1_0" slope="-0.29"/>
    </timestep>
    <timestep time="116.00">
        <vehicle id="r0" x="2128.63" y="16.74" z="9.35" angle="90.21" type="0" speed="44.29" pos="1300.40" lane="e1_0" slope="-0.29"/>
    </timestep>
    <timestep time="117.00">
        <vehicle id="r0" x="2133.07" y="16.73" z="9.33" angle="90.21" type="0" speed="44.44" pos="1344.84" lane="e1_0" slope="-0.29"/>
    </timestep>
    <timestep time="118.00">
        <vehicle id="r0" x="2137.52" y="16.71" z="9.31" angle="90.21" type="0" speed="44.44" pos="1389.29" lane="e1_0" slope="-0.29"/>
    </timestep>
    <timestep time="119.00">
        <vehicle id="r0" x="2141.96" y="16.70" z="9.28" angle="90.21" type="0" speed="44.44" pos="1433.73" lane="e1_0" slope="-0.29"/>
    </timestep>
    <timestep time="120.00">
        <vehicle id="r0" x="2146.40" y="16.68" z="9.26" angle="90.21" type="0" speed="44.44" pos="1478.18" lane="e1_0" slope="-0.29"/>
    </timestep>
    <timestep time="121.00">
        <vehicle id="r0" x="2150.84" y="16.66" z="9.24" angle="90.21" type="0" speed="44.44" pos="1522.62" lane="e1_0" slope="-0.29"/>
    </timestep>
    <timestep time="122.00">
        <vehicle id="r0" x="2155.28" y="16.65" z="9.22" angle="90.21" type="0" speed="44.44" pos="1567.07" lane="e1_0" slope="-0.29"/>
    </timestep>
    <timestep time="123.00">
        <vehicle id="r0" x="2159.72" y="16.63" z="9.19" angle="90.21" type="0" speed="44.44" pos="1611.51" lane="e1_0" slope="-0.29"/>
    </timestep>
    <timestep time="124.00">
        <vehicle id="r0" x="2164.16" y="16.61" z="9.17" angle="90.21" type="0" speed="44.44" pos="1655.96" lane="e1_0" slope="-0.29"/>
    </timestep>
    <timestep time="125.00">
        <vehicle id="r0" x="2168.61" y="16.60" z="9.15" angle="90.21" type="0" speed="44.44" pos="1700.40" lane="e1_0" slope="-0.29"/>
    </timestep>
    <timestep time="126.00">
        <vehicle id="r0" x="2173.05" y="16.58" z="9.13" angle="90.21" type="0" speed="44.44" pos="1744.84" lane="e1_0" slope="-0.29"/>
    </timestep>
    <timestep time="127.00">
        <vehicle id="r0" x="2177.49" y="16.56" z="9.11" angle="90.21" type="0" speed="44.44" pos="1789.29" lane="e1_0" slope="-0.29"/>
    </timestep>
    <timestep time="128.00">
        <vehicle id="r0" x="2181.93" y="16.55" z="9.08" angle="90.21" type="0" speed="44.44" pos="1833.73" lane="e1_0" slope="-0.29"/>
    </timestep>
    <timestep time="129.00">
        <vehicle id="r0" x="2186.37" y="16.53" z="9.06" angle="90.21" type="0" speed="44.44" pos="1878.18" lane="e1_0" slope="-0.29"/>
    </timestep>
    <timestep time="130.00">
        <vehicle id="r0" x="2190.81" y="16.51" z="9.04" angle="90.21" type="0" speed="44.44" pos="1922.62" lane="e1_0" slope="-0.29"/>
    </timestep>
    <timestep time="131.00">
        <vehicle id="r0" x="2195.25" y="16.50" z="9.02" angle="90.21" type="0" speed="44.44" pos="1967.07" lane="e1_0" slope="-0.29"/>
    </timestep>
    <timestep time="132.00">
        <vehicle id="r0" x="2199.70" y="16.48" z="8.99" angle="90.21" type="0" speed="44.44" pos="2011.51" lane="e1_0" slope="-0.29"/>
    </timestep>
    <timestep time="133.00">
        <vehicle id="r0" x="2204.14" y="16.46" z="8.97" angle="90.21" type="0" speed="44.44" pos="2055.96" lane="e1_0" slope="-0.29"/>
    </timestep>
    <timestep time="134.00">
        <vehicle id="r0" x="2208.58" y="16.45" z="8.95" angle="90.21" type="0" speed="44.44" pos="2100.40" lane="e1_0" slope="-0.29"/>
    </timestep>
    <timestep time="135.00">
        <vehicle id="r0" x="2213.02" y="16.43" z="8.93" angle="90.21" type="0" speed="44.44" pos="2144.84" lane="e1_0" slope="-0.29"/>
    </timestep>
    <timestep time="136.00">
        <vehicle id="r0" x="2217.46" y="16.41" z="8.91" angle="90.21" type="0" speed="44.44" pos="2189.29" lane="e1_0" slope="-0.29"/>
    </timestep>
    <timestep time="137.00">
        <vehicle id="r0" x="2221.90" y="16.40" z="8.88" angle="90.21" type="0" speed="44.44" pos="2233.73" lane="e1_0" slope="-0.29"/>
    </timestep>
    <timestep time="138.00">
        <vehicle id="r0" x="2226.35" y="16.38" z="8.86" angle="90.21" type="0" speed="44.44" pos="2278.18" lane="e1_0" slope="-0.29"/>
    </timestep>
    <timestep time="139.00">
        <vehicle id="r0" x="2230.79" y="16.36" z="8.84" angle="90.21" type="0" speed="44.44" pos="2322.62" lane="e1_0" slope="-0.29"/>
    </timestep>
    <timestep time="140.00">
        <vehicle id="r0" x="2235.23" y="16.35" z="8.82" angle="90.21" type="0" speed="44.44" pos="2367.07" lane="e1_0" slope="-0.29"/>
    </timestep>
    <timestep time="141.00">
        <vehicle id="r0" x="2239.67" y="16.33" z="8.79" angle="90.21" type="0" speed="44.44" pos="2411.51" lane="e1_0" slope="-0.29"/>
    </timestep>
    <timestep time="142.00">
        <vehicle id="r0" x="2244.11" y="16.31" z="8.77" angle="90.21" type="0" speed="44.44" pos="2455.96" lane="e1_0" slope="-0.29"/>
    </timestep>
    <timestep time="143.00">
        <vehicle id="r0" x="2248.55" y="16.30" z="8.75" angle="90.21" type="0" speed="44.44" pos="2500.40" lane="e1_0" slope="-0.29"/>
    </timestep>
    <timestep time="144.00">
        <vehicle id="r0" x="2252.99" y="16.28" z="8.73" angle="90.21" type="0" speed="44.44" pos="2544.84" lane="e1_0" slope="-0.29"/>
    </timestep>
    <timestep time="145.00">
        <vehicle id="r0" x="2257.44" y="16.26" z="8.71" angle="90.21" type="0" speed="44.44" pos="2589.29" lane="e1_0" slope="-0.29"/>
    </timestep>
    <timestep time="146.00">
        <vehicle id="r0" x="2261.88" y="16.25" z="8.68" angle="90.21" type="0" speed="44.44" pos="2633.73" lane="e1_0" slope="-0.29"/>
    </timestep>
    <timestep time="147.00">
        <vehicle id="r0" x="2266.32" y="16.23" z="8.66" angle="90.21" type="0" speed="44.44" pos="2678.18" lane="e1_0" slope="-0.29"/>
    </timestep>
    <timestep time="148.00">
        <vehicle id="r0" x="2270.76" y="16.21" z="8.64" angle="90.21" type="0" speed="44.44" pos="2722.62" lane="e1_0" slope="-0.29"/>
    </timestep>
    <timestep time="149.00">
        <vehicle id="r0" x="2275.20" y="16.20" z="8.62" angle="90.21" type="0" speed="44.44" pos="2767.07" lane="e1_0" slope="-0.29"/>
    </timestep>
    <timestep time="150.00">
        <vehicle id="r0" x="2279.64" y="16.18" z="8.59" angle="90.21" type="0" speed="44.44" pos="2811.51" lane="e1_0" slope="-0.29"/>
    </timestep>
    <timestep time="151.00">
        <vehicle id="r0" x="2284.08" y="16.16" z="8.57" angle="90.21" type="0" speed="44.44" pos="2855.96" lane="e1_0" slope="-0.29"/>
    </timestep>
    <timestep time="152.00">
        <vehicle id="r0" x="2288.53" y="16.15" z="8.55" angle="90.21" type="0" speed="44.44" pos="2900.40" lane="e1_0" slope="-0.29"/>
    </timestep>
    <timestep time="153.00">
        <vehicle id="r0" x="2292.97" y="16.13" z="8.53" angle="90.21" type="0" speed="44.44" pos="2944.84" lane="e1_0" slope="-0.29"/>
    </timestep>
    <timestep time="154.00">
        <vehicle id="r0" x="2297.41" y="16.11" z="8.51" angle="90.21" type="0" speed="44.44" pos="2989.29" lane="e1_0" slope="-0.29"/>
    </timestep>
    <timestep time="155.00">
        <vehicle id="r0" x="2301.85" y="16.10" z="8.48" angle="90.21" type="0" speed="44.44" pos="3033.73" lane="e1_0" slope="-0.29"/>
    </timestep>
    <timestep time="156.00">
        <vehicle id="r0" x="2306.29" y="16.08" z="8.46" angle="90.21" type="0" speed="44.44" pos="3078.18" lane="e1_0" slope="-0.29"/>
    </timestep>
    <timestep time="157.00">
        <vehicle id="r0" x="2310.73" y="16.07" z="8.44" angle="90.21" type="0" speed="44.44" pos="3122.62" lane="e1_0" slope="-0.29"/>
    </timestep>
    <timestep time="158.00">
        <vehicle id="r0" x="2315.17" y="16.05" z="8.42" angle="90.21" type="0" speed="44.44" pos="3167.07" lane="e1_0" slope="-0.29"/>
    </timestep>
    <timestep time="159.00">
        <vehicle id="r0" x="2319.62" y="16.03" z="8.39" angle="90.21" type="0" speed="44.44" pos="3211.51" lane="e1_0" slope="-0.29"/>
    </timestep>
    <timestep time="160.00">