<?xml version="1.0" encoding="UTF-8"?>

<!-- generated on Tue Dec  5 13:33:47 2017 by SUMO Version v0_31_0+1462-22ffc08
<?xml version="1.0" encoding="UTF-8"?>

<configuration xmlns:xsi="http://www.w3.org/2001/XMLSchema-instance" xsi:noNamespaceSchemaLocation="http://sumo.dlr.de/xsd/sumoConfiguration.xsd">

    <input>
        <net-file value="net.net.xml"/>
        <route-files value="input_routes.rou.xml"/>
    </input>

    <output>
        <tripinfo-output value="tripinfos.xml"/>
    </output>

    <report>
        <xml-validation value="never"/>
        <duration-log.disable value="true"/>
        <no-step-log value="true"/>
    </report>

</configuration>
-->

<tripinfos xmlns:xsi="http://www.w3.org/2001/XMLSchema-instance" xsi:noNamespaceSchemaLocation="http://sumo.dlr.de/xsd/tripinfo_file.xsd">
    <containerinfo id="c1" depart="0.00">
        <stop duration="5.00" arrival="5.00" arrivalPos="40.00" actType="waiting"/>
        <tranship depart="5.00" departPos="40.00" arrival="33.00" arrivalPos="50.00" duration="28.00" routeLength="56.00" maxSpeed="2.00"/>
        <stop duration="5.00" arrival="38.00" arrivalPos="40.00" actType="waiting"/>
    </containerinfo>
</tripinfos>
