<?xml version="1.0" encoding="UTF-8"?>

<!-- generated on 2026-04-23T10:51:36.215090+01:00 by Eclipse SUMO sumo v1_26_0+1336-682400df945
This data file and the accompanying materials
are made available under the terms of the Eclipse Public License v2.0
which accompanies this distribution, and is available at
http://www.eclipse.org/legal/epl-v20.html
This file may also be made available under the following Secondary
Licenses when the conditions for such availability set forth in the Eclipse
Public License 2.0 are satisfied: GNU General Public License, version 2
or later which is available at
https://www.gnu.org/licenses/old-licenses/gpl-2.0-standalone.html
SPDX-License-Identifier: EPL-2.0 OR GPL-2.0-or-later
<sumoConfiguration xmlns:xsi="http://www.w3.org/2001/XMLSchema-instance" xsi:noNamespaceSchemaLocation="http://sumo.dlr.de/xsd/sumoConfiguration.xsd">

    <input>
        <net-file value="net.net.xml"/>
        <route-files value="input_routes.rou.xml"/>
    </input>

    <output>
        <write-license value="true"/>
        <tripinfo-output value="tripinfos.xml"/>
        <vehroute-output value="vehroutes.xml"/>
    </output>

    <time>
        <end value="1000"/>
    </time>

    <processing>
        <default.departspeed value="0"/>
        <default.departlane value="first"/>
        <default.speeddev value="0"/>
    </processing>

    <report>
        <xml-validation value="never"/>
        <duration-log.disable value="true"/>
        <no-step-log value="true"/>
    </report>

    <taxi_device>
        <device.taxi.idle-algorithm value="randomCircling"/>
    </taxi_device>

</sumoConfiguration>
-->

<routes xmlns:xsi="http://www.w3.org/2001/XMLSchema-instance" xsi:noNamespaceSchemaLocation="http://sumo.dlr.de/xsd/routes_file.xsd">
    <vehicle id="trip_0" type="taxi" depart="0.00" arrival="171.00">
        <routeDistribution>
            <route replacedOnEdge="A0B0" reason="taxi:idling:randomCircling" replacedAtTime="0.00" probability="0" edges="A0B0 B0C0"/>
            <route replacedOnEdge="B0C0" replacedOnIndex="1" reason="taxi:idling:randomCircling" replacedAtTime="26.00" probability="0" edges="A0B0 B0C0 C0B0"/>
            <route replacedOnEdge="C0B0" replacedOnIndex="2" reason="taxi:idling:randomCircling" replacedAtTime="50.00" probability="0" edges="A0B0 B0C0 C0B0 B0B1"/>
            <route replacedOnEdge="C0B0" replacedOnIndex="2" reason="taxi:idling:randomCircling" replacedAtTime="65.00" probability="0" edges="A0B0 B0C0 C0B0 B0B1 B1C1"/>
            <route replacedOnEdge="B1C1" replacedOnIndex="4" reason="taxi:idling:randomCircling" replacedAtTime="86.00" probability="0" edges="A0B0 B0C0 C0B0 B0B1 B1C1 C1C0"/>
            <route replacedOnEdge="B1C1" replacedOnIndex="4" reason="taxi:idling:randomCircling" replacedAtTime="100.00" probability="0" edges="A0B0 B0C0 C0B0 B0B1 B1C1 C1C0 C0D0"/>
            <route edges="A0B0 B0C0 C0B0 B0B1 B1C1 C1C0 C0D0 D0C0"/>
        </routeDistribution>
    </vehicle>

    <person id="p0" depart="0.00" arrival="214.00">
        <ride from="B2C2" to="A0B0" arrivalPos="287.60" lines="taxi"/>
    </person>

    <vehicle id="trip_1" type="taxi" depart="0.00" arrival="559.00">
        <routeDistribution>
            <route replacedOnEdge="A2B2" reason="taxi:idling:randomCircling" replacedAtTime="0.00" probability="0" edges="A2B2 B2C2"/>
            <route replacedOnEdge="A2B2" reason="taxi:prepare_dispatch" replacedAtTime="0.00" probability="0" edges="A2B2 B2C2 C2C1"/>
            <route replacedOnEdge="A2B2" reason="taxi:dispatch" replacedAtTime="0.00" probability="0" edges="A2B2 B2C2 A0B0"/>
            <route replacedOnEdge="A0B0" replacedOnIndex="6" reason="taxi:idling:randomCircling" replacedAtTime="215.00" probability="0" edges="A2B2 B2C2 C2C1 C1B1 B1A1 A1A0 A0B0"/>
            <route replacedOnEdge="B1C1" replacedOnIndex="8" reason="taxi:idling:randomCircling" replacedAtTime="228.00" probability="0" edges="A2B2 B2C2 C2C1 C1B1 B1A1 A1A0 A0B0 B0B1 B1C1 C1C2"/>
            <route replacedOnEdge="B1C1" replacedOnIndex="8" reason="taxi:idling:randomCircling" replacedAtTime="242.00" probability="0" edges="A2B2 B2C2 C2C1 C1B1 B1A1 A1A0 A0B0 B0B1 B1C1 C1C2 C2D2"/>
            <route replacedOnEdge="C2D2" replacedOnIndex="10" reason="taxi:idling:randomCircling" replacedAtTime="264.00" probability="0" edges="A2B2 B2C2 C2C1 C1B1 B1A1 A1A0 A0B0 B0B1 B1C1 C1C2 C2D2 D2D1"/>
            <route replacedOnEdge="C2D2" replacedOnIndex="10" reason="taxi:idling:randomCircling" replacedAtTime="278.00" probability="0" edges="A2B2 B2C2 C2C1 C1B1 B1A1 A1A0 A0B0 B0B1 B1C1 C1C2 C2D2 D2D1 D1C1"/>
            <route replacedOnEdge="D1C1" replacedOnIndex="12" reason="taxi:idling:randomCircling" replacedAtTime="299.00" probability="0" edges="A2B2 B2C2 C2C1 C1B1 B1A1 A1A0 A0B0 B0B1 B1C1 C1C2 C2D2 D2D1 D1C1 C1D1"/>
            <route replacedOnEdge="C1D1" replacedOnIndex="13" reason="taxi:idling:randomCircling" replacedAtTime="325.00" probability="0" edges="A2B2 B2C2 C2C1 C1B1 B1A1 A1A0 A0B0 B0B1 B1C1 C1C2 C2D2 D2D1 D1C1 C1D1 D1D2"/>
            <route replacedOnEdge="C1D1" replacedOnIndex="13" reason="taxi:idling:randomCircling" replacedAtTime="340.00" probability="0" edges="A2B2 B2C2 C2C1 C1B1 B1A1 A1A0 A0B0 B0B1 B1C1 C1C2 C2D2 D2D1 D1C1 C1D1 D1D2 D2E2"/>
            <route replacedOnEdge="D2E2" replacedOnIndex="15" reason="taxi:idling:randomCircling" replacedAtTime="361.00" probability="0" edges="A2B2 B2C2 C2C1 C1B1 B1A1 A1A0 A0B0 B0B1 B1C1 C1C2 C2D2 D2D1 D1C1 C1D1 D1D2 D2E2 E2E1"/>
            <route replacedOnEdge="D2E2" replacedOnIndex="15" reason="taxi:idling:randomCircling" replacedAtTime="375.00" probability="0" edges="A2B2 B2C2 C2C1 C1B1 B1A1 A1A0 A0B0 B0B1 B1C1 C1C2 C2D2 D2D1 D1C1 C1D1 D1D2 D2E2 E2E1 E1E2"/>
            <route replacedOnEdge="D2E2" replacedOnIndex="15" reason="taxi:idling:randomCircling" replacedAtTime="382.00" probability="0" edges="A2B2 B2C2 C2C1 C1B1 B1A1 A1A0 A0B0 B0B1 B1C1 C1C2 C2D2 D2D1 D1C1 C1D1 D1D2 D2E2 E2E1 E1E2 E2F2"/>
            <route replacedOnEdge="E2F2" replacedOnIndex="18" reason="taxi:idling:randomCircling" replacedAtTime="407.00" probability="0" edges="A2B2 B2C2 C2C1 C1B1 B1A1 A1A0 A0B0 B0B1 B1C1 C1C2 C2D2 D2D1 D1C1 C1D1 D1D2 D2E2 E2E1 E1E2 E2F2 F2F1"/>
            <route replacedOnEdge="E2F2" replacedOnIndex="18" reason="taxi:idling:randomCircling" replacedAtTime="422.00" probability="0" edges="A2B2 B2C2 C2C1 C1B1 B1A1 A1A0 A0B0 B0B1 B1C1 C1C2 C2D2 D2D1 D1C1 C1D1 D1D2 D2E2 E2E1 E1E2 E2F2 F2F1 F1E1"/>
            <route replacedOnEdge="F1E1" replacedOnIndex="20" reason="taxi:idling:randomCircling" replacedAtTime="442.00" probability="0" edges="A2B2 B2C2 C2C1 C1B1 B1A1 A1A0 A0B0 B0B1 B1C1 C1C2 C2D2 D2D1 D1C1 C1D1 D1D2 D2E2 E2E1 E1E2 E2F2 F2F1 F1E1 E1E2"/>
            <route replacedOnEdge="F1E1" replacedOnIndex="20" reason="taxi:idling:randomCircling" replacedAtTime="456.00" probability="0" edges="A2B2 B2C2 C2C1 C1B1 B1A1 A1A0 A0B0 B0B1 B1C1 C1C2 C2D2 D2D1 D1C1 C1D1 D1D2 D2E2 E2E1 E1E2 E2F2 F2F1 F1E1 E1E2 E2E1"/>
            <route replacedOnEdge="F1E1" replacedOnIndex="20" reason="taxi:idling:randomCircling" replacedAtTime="462.00" probability="0" edges="A2B2 B2C2 C2C1 C1B1 B1A1 A1A0 A0B0 B0B1 B1C1 C1C2 C2D2 D2D1 D1C1 C1D1 D1D2 D2E2 E2E1 E1E2 E2F2 F2F1 F1E1 E1E2 E2E1 E1D1"/>
            <route replacedOnEdge="E1D1" replacedOnIndex="23" reason="taxi:idling:randomCircling" replacedAtTime="487.00" probability="0" edges="A2B2 B2C2 C2C1 C1B1 B1A1 A1A0 A0B0 B0B1 B1C1 C1C2 C2D2 D2D1 D1C1 C1D1 D1D2 D2E2 E2E1 E1E2 E2F2 F2F1 F1E1 E1E2 E2E1 E1D1 D1C1"/>
            <route edges="A2B2 B2C2 C2C1 C1B1 B1A1 A1A0 A0B0 B0B1 B1C1 C1C2 C2D2 D2D1 D1C1 C1D1 D1D2 D2E2 E2E1 E1E2 E2F2 F2F1 F1E1 E1E2 E2E1 E1D1 D1C1 C1B1"/>
        </routeDistribution>
        <stop lane="B2C2_1" startPos="0.00" endPos="5.00" duration="0.00" triggered="person" parking="1" permitted="p0" actType="pickup p0 (0)"/>
        <stop lane="A0B0_1" startPos="287.60" endPos="287.60" duration="60.00" parking="1" actType="dropOff p0 (0)"/>
        <param key="device.taxi.end" value="500"/>
    </vehicle>

</routes>
