<?xml version="1.0" encoding="UTF-8"?>

<!-- generated on 2025-11-18T16:33:56.685626+01:00 by Eclipse SUMO sumo v1_25_0+0086-b1f02afa5bd
This data file and the accompanying materials
are made available under the terms of the Eclipse Public License v2.0
which accompanies this distribution, and is available at
http://www.eclipse.org/legal/epl-v20.html
This file may also be made available under the following Secondary
Licenses when the conditions for such availability set forth in the Eclipse
Public License 2.0 are satisfied: GNU General Public License, version 2
or later which is available at
https://www.gnu.org/licenses/old-licenses/gpl-2.0-standalone.html
SPDX-License-Identifier: EPL-2.0 OR GPL-2.0-or-later
<sumoConfiguration xmlns:xsi="http://www.w3.org/2001/XMLSchema-instance" xsi:noNamespaceSchemaLocation="http://sumo.dlr.de/xsd/sumoConfiguration.xsd">

    <input>
        <net-file value="motorway.net.xml"/>
        <route-files value="input_routes.rou.xml"/>
        <additional-files value="input_additional.add.xml,input_additional2.add.xml"/>
    </input>

    <output>
        <write-license value="true"/>
        <lanechange-output value="lanechanges.xml"/>
    </output>

    <processing>
        <default.speeddev value="0"/>
    </processing>

    <report>
        <xml-validation value="never"/>
        <duration-log.statistics value="true"/>
        <no-step-log value="true"/>
    </report>

</sumoConfiguration>
-->

<meandata xmlns:xsi="http://www.w3.org/2001/XMLSchema-instance" xsi:noNamespaceSchemaLocation="http://sumo.dlr.de/xsd/meandata_file.xsd">
    <interval begin="0.00" end="1025.00" id="laneData">
        <edge id="beg2">
            <lane id="beg2_0" sampledSeconds="2378.86" traveltime="106.20" overlapTraveltime="109.05" density="0.74" overlapDensity="0.77" laneDensity="0.74" occupancy="0.38" waitingTime="8.00" timeLoss="538.29" speed="27.53" speedRelative="0.76" departed="367" arrived="0" entered="0" left="256" laneChangedFrom="112" laneChangedTo="1" flow="75.24"/>
            <lane id="beg2_1" sampledSeconds="2251.21" traveltime="87.60" overlapTraveltime="87.78" density="0.71" overlapDensity="0.73" laneDensity="0.71" occupancy="0.36" waitingTime="0.00" timeLoss="117.68" speed="34.20" speedRelative="0.95" departed="328" arrived="0" entered="0" left="439" laneChangedFrom="1" laneChangedTo="112" flow="87.65"/>
        </edge>
        <edge id="end">
            <lane id="end_0" sampledSeconds="4102.13" traveltime="8.80" overlapTraveltime="8.97" density="19.97" overlapDensity="20.32" laneDensity="19.97" occupancy="9.85" waitingTime="0.00" timeLoss="1507.53" speed="22.51" speedRelative="0.63" departed="0" arrived="458" entered="458" left="0" laneChangedFrom="0" laneChangedTo="0" flow="1608.59"/>
            <lane id="end_1" sampledSeconds="2776.09" traveltime="5.90" overlapTraveltime="6.05" density="13.44" overlapDensity="13.75" laneDensity="13.44" occupancy="6.71" waitingTime="0.00" timeLoss="210.19" speed="33.41" speedRelative="0.93" departed="0" arrived="460" entered="460" left="0" laneChangedFrom="0" laneChangedTo="0" flow="1615.61"/>
        </edge>
        <edge id="merge">
            <lane id="merge_0" sampledSeconds="1665.31" traveltime="12.11" overlapTraveltime="12.74" density="16.75" overlapDensity="16.75" laneDensity="16.75" occupancy="8.23" waitingTime="431.00" timeLoss="1294.11" speed="8.01" speedRelative="0.22" departed="0" arrived="0" entered="223" left="0" laneChangedFrom="223" laneChangedTo="0" flow="482.91"/>
            <lane id="merge_1" sampledSeconds="3412.11" traveltime="9.73" overlapTraveltime="10.13" density="32.35" overlapDensity="34.32" laneDensity="32.35" occupancy="16.43" waitingTime="117.00" timeLoss="2444.49" speed="10.06" speedRelative="0.28" departed="0" arrived="0" entered="256" left="458" laneChangedFrom="21" laneChangedTo="223" flow="1160.54"/>
            <lane id="merge_2" sampledSeconds="1397.34" traveltime="2.95" overlapTraveltime="3.10" density="13.35" overlapDensity="14.05" laneDensity="13.35" occupancy="6.69" waitingTime="0.00" timeLoss="125.58" speed="32.89" speedRelative="0.91" departed="0" arrived="0" entered="439" left="460" laneChangedFrom="0" laneChangedTo="21" flow="1580.75"/>
        </edge>
        <edge id="onRamp">
            <lane id="onRamp_0" sampledSeconds="2246.34" traveltime="9.94" overlapTraveltime="10.24" density="7.03" overlapDensity="7.25" laneDensity="7.03" occupancy="3.58" waitingTime="16.00" timeLoss="370.83" speed="29.99" speedRelative="0.83" departed="223" arrived="0" entered="0" left="223" laneChangedFrom="0" laneChangedTo="0" flow="770.00"/>
        </edge>
    </interval>
</meandata>
