<?xml version="1.0" encoding="UTF-8"?>

<!-- generated on 2022-04-28 13:02:19 by Eclipse SUMO sumo Version v1_12_0+2351-e68db26
This data file and the accompanying materials
are made available under the terms of the Eclipse Public License v2.0
which accompanies this distribution, and is available at
http://www.eclipse.org/legal/epl-v20.html
This file may also be made available under the following Secondary
Licenses when the conditions for such availability set forth in the Eclipse
Public License 2.0 are satisfied: GNU General Public License, version 2
or later which is available at
https://www.gnu.org/licenses/old-licenses/gpl-2.0-standalone.html
SPDX-License-Identifier: EPL-2.0 OR GPL-2.0-or-later
<configuration xmlns:xsi="http://www.w3.org/2001/XMLSchema-instance" xsi:noNamespaceSchemaLocation="http://sumo.dlr.de/xsd/sumoConfiguration.xsd">

    <input>
        <net-file value="net.net.xml"/>
        <route-files value="input_routes.rou.xml"/>
        <additional-files value="input_additional.add.xml,input_additional2.add.xml,input_additional3.add.xml"/>
    </input>

    <output>
        <write-license value="true"/>
        <vehroute-output value="vehroutes.xml"/>
        <vehroute-output.exit-times value="true"/>
        <vehroute-output.cost value="true"/>
        <vehroute-output.route-length value="true"/>
        <vehroute-output.write-unfinished value="true"/>
        <stop-output value="stopinfos.xml"/>
        <stop-output.write-unfinished value="true"/>
    </output>

    <time>
        <end value="1000"/>
    </time>

    <processing>
        <default.speeddev value="0"/>
    </processing>

    <report>
        <xml-validation value="never"/>
        <xml-validation.routes value="never"/>
        <duration-log.disable value="true"/>
        <no-step-log value="true"/>
    </report>

    <gui_only>
        <gui-settings-file value="settings.xml"/>
    </gui_only>

</configuration>
-->

<routes xmlns:xsi="http://www.w3.org/2001/XMLSchema-instance" xsi:noNamespaceSchemaLocation="http://sumo.dlr.de/xsd/routes_file.xsd">
    <vehicle id="ego.0" type="car" depart="2.00" departSpeed="18.0556" speedFactor="1.2999" routeLength="246.90">
        <route cost="21.15" savings="0.00" edges="A0A1 A1A2 A2A3" exitTimes="8.00 13.00 -1"/>
        <stop parkingArea="parkA2A3" duration="3600.00" started="19.00" ended="-1"/>
    </vehicle>

    <vehicle id="ego.1" type="car" depart="4.00" departSpeed="9.6049" speedFactor="0.6915" routeLength="642.39">
        <routeDistribution>
            <route cost="30.59" savings="0.00" replacedOnEdge="A2A3" replacedOnIndex="2" reason="parkA2A3:parkingAreaReroute" replacedAtTime="24.00" probability="0" edges="A0A1 A1A2 A2A3" routeLength="288.70"/>
            <route cost="101.00" savings="-90.93" edges="A0A1 A1A2 A2A3 A3B3 B3C3 C3C2 C2C3 C3B3 B3A3 A3A2 A2A3" exitTimes="14.00 24.00 35.00 44.00 55.00 65.00 -1 -1 -1 -1 -1"/>
        </routeDistribution>
        <stop parkingArea="parkC2C3" duration="3600.00" started="73.00" ended="-1"/>
    </vehicle>

    <vehicle id="ego.2" type="car" depart="6.00" departSpeed="10.3062" speedFactor="1.0520" routeLength="937.88">
        <routeDistribution>
            <route cost="21.13" savings="0.00" replacedOnEdge="A2A3" replacedOnIndex="2" reason="parkA2A3:parkingAreaReroute" replacedAtTime="26.00" probability="0" edges="A0A1 A1A2 A2A3" routeLength="288.70"/>
            <route cost="72.22" savings="-65.18" replacedOnEdge="C2C3" replacedOnIndex="6" reason="parkC2C3:parkingAreaReroute" replacedAtTime="74.00" probability="0" edges="A0A1 A1A2 A2A3 A3B3 B3C3 C3C2 C2C3 C3B3 B3A3 A3A2 A2A3" routeLength="1090.00"/>
            <route cost="73.51" savings="-31.59" edges="A0A1 A1A2 A2A3 A3B3 B3C3 C3C2 C2C3 C3D3 D3D2 D2D3 D3C3 C3B3 B3A3 A3A2 A2A3" exitTimes="16.00 26.00 36.00 46.00 56.00 68.00 81.00 88.00 96.00 -1 -1 -1 -1 -1 -1"/>
        </routeDistribution>
        <stop parkingArea="parkD2D3" duration="3600.00" started="102.00" ended="-1"/>
    </vehicle>

    <vehicle id="ego.3" type="car" depart="8.00" departSpeed="11.0076" speedFactor="1.4133" routeLength="646.84">
        <routeDistribution>
            <route cost="21.14" savings="0.00" replacedOnEdge="A2A3" replacedOnIndex="2" reason="parkA2A3:parkingAreaReroute" replacedAtTime="28.00" probability="0" edges="A0A1 A1A2 A2A3" routeLength="288.70"/>
            <route cost="56.54" savings="-49.48" edges="A0A1 A1A2 A2A3 A3A2 A2A1 A1A0 A0A1 A1A2 A2A3" exitTimes="18.00 28.00 39.00 45.00 50.00 57.00 -1 -1 -1"/>
        </routeDistribution>
        <stop parkingArea="parkA0A1" duration="3600.00" started="68.00" ended="-1"/>
    </vehicle>

    <vehicle id="ego.4" type="car" depart="10.00" departSpeed="11.7089" speedFactor="1.1515" routeLength="642.49">
        <routeDistribution>
            <route cost="21.13" savings="0.00" replacedOnEdge="A2A3" replacedOnIndex="2" reason="parkA2A3:parkingAreaReroute" replacedAtTime="30.00" probability="0" edges="A0A1 A1A2 A2A3" routeLength="288.70"/>
            <route cost="72.19" savings="-65.10" edges="A0A1 A1A2 A2A3 A3B3 B3B2 B2B1 B1B2 B2B3 B3A3 A3A2 A2A3" exitTimes="19.00 30.00 40.00 48.00 54.00 61.00 -1 -1 -1 -1 -1"/>
        </routeDistribution>
        <stop parkingArea="parkB1B2" duration="3600.00" started="68.00" ended="-1"/>
    </vehicle>

    <vehicle id="ego.5" type="car" depart="12.00" departSpeed="12.4102" speedFactor="1.2291" routeLength="946.66">
        <routeDistribution>
            <route cost="21.13" savings="0.00" replacedOnEdge="A2A3" replacedOnIndex="2" reason="parkA2A3:parkingAreaReroute" replacedAtTime="32.00" probability="0" edges="A0A1 A1A2 A2A3" routeLength="288.70"/>
            <route cost="72.13" savings="-65.02" replacedOnEdge="C2C3" replacedOnIndex="6" reason="parkC2C3:parkingAreaReroute" replacedAtTime="74.00" probability="0" edges="A0A1 A1A2 A2A3 A3B3 B3C3 C3C2 C2C3 C3B3 B3A3 A3A2 A2A3" routeLength="1090.00"/>
            <route cost="63.47" savings="-21.73" edges="A0A1 A1A2 A2A3 A3B3 B3C3 C3C2 C2C3 C3B3 B3B2 B2B3 B3A3 A3A2 A2A3" exitTimes="21.00 32.00 42.00 49.00 58.00 70.00 83.00 90.00 99.00 -1 -1 -1 -1"/>
        </routeDistribution>
        <stop parkingArea="parkB2B3" duration="3600.00" started="105.00" ended="-1"/>
    </vehicle>

    <vehicle id="ego.6" type="car" depart="14.00" departSpeed="5.9727" speedFactor="0.4300" routeLength="5742.15">
        <routeDistribution>
            <route cost="49.19" savings="0.00" replacedOnEdge="A2A3" replacedOnIndex="2" reason="parkA2A3:parkingAreaReroute" replacedAtTime="47.00" probability="0" edges="A0A1 A1A2 A2A3" routeLength="288.70"/>
            <route cost="157.87" savings="-141.66" replacedOnEdge="C2C3" replacedOnIndex="6" reason="parkC2C3:parkingAreaReroute" replacedAtTime="114.00" probability="0" edges="A0A1 A1A2 A2A3 A3B3 B3C3 C3C2 C2C3 C3B3 B3A3 A3A2 A2A3" routeLength="1090.00"/>
            <route cost="130.35" savings="-41.70" replacedOnEdge="B2B3" replacedOnIndex="9" reason="parkB2B3:parkingAreaReroute" replacedAtTime="170.00" probability="0" edges="A0A1 A1A2 A2A3 A3B3 B3C3 C3C2 C2C3 C3B3 B3B2 B2B3 B3A3 A3A2 A2A3" routeLength="1294.27"/>
            <route cost="142.57" savings="-70.66" replacedOnEdge="B1B2" replacedOnIndex="12" reason="parkB1B2:parkingAreaReroute" replacedAtTime="223.00" probability="0" edges="A0A1 A1A2 A2A3 A3B3 B3C3 C3C2 C2C3 C3B3 B3B2 B2B3 B3B2 B2B1 B1B2 B2B3 B3A3 A3A2 A2A3" routeLength="1689.42"/>
            <route cost="120.46" savings="-31.79" replacedOnEdge="A1A2" replacedOnIndex="17" reason="parkA1A2:parkingAreaReroute" replacedAtTime="306.00" probability="0" edges="A0A1 A1A2 A2A3 A3B3 B3C3 C3C2 C2C3 C3B3 B3B2 B2B3 B3B2 B2B1 B1B2 B2B1 B1B0 B0A0 A0A1 A1A2 A2A3" routeLength="1879.30"/>
            <route cost="32.97" savings="0.00" replacedOnEdge="A2A3" replacedOnIndex="18" reason="parkA2A3:parkingAreaReroute" replacedAtTime="323.00" probability="0" edges="A0A1 A1A2 A2A3 A3B3 B3C3 C3C2 C2C3 C3B3 B3B2 B2B3 B3B2 B2B1 B1B2 B2B1 B1B0 B0A0 A0A1 A1A2 A2A3" routeLength="1879.30"/>
            <route cost="157.87" savings="-141.66" replacedOnEdge="C2C3" replacedOnIndex="22" reason="parkC2C3:parkingAreaReroute" replacedAtTime="389.00" probability="0" edges="A0A1 A1A2 A2A3 A3B3 B3C3 C3C2 C2C3 C3B3 B3B2 B2B3 B3B2 B2B1 B1B2 B2B1 B1B0 B0A0 A0A1 A1A2 A2A3 A3B3 B3C3 C3C2 C2C3 C3B3 B3A3 A3A2 A2A3" routeLength="2680.60"/>
            <route cost="158.13" savings="-69.48" replacedOnEdge="D2D3" replacedOnIndex="25" reason="parkD2D3:parkingAreaReroute" replacedAtTime="439.00" probability="0" edges="A0A1 A1A2 A2A3 A3B3 B3C3 C3C2 C2C3 C3B3 B3B2 B2B3 B3B2 B2B1 B1B2 B2B1 B1B0 B0A0 A0A1 A1A2 A2A3 A3B3 B3C3 C3C2 C2C3 C3D3 D3D2 D2D3 D3C3 C3B3 B3A3 A3A2 A2A3" routeLength="3077.64"/>
            <route cost="177.65" savings="-73.50" replacedOnEdge="D1D2" replacedOnIndex="28" reason="parkD1D2:parkingAreaReroute" replacedAtTime="495.00" probability="0" edges="A0A1 A1A2 A2A3 A3B3 B3C3 C3C2 C2C3 C3B3 B3B2 B2B3 B3B2 B2B1 B1B2 B2B1 B1B0 B0A0 A0A1 A1A2 A2A3 A3B3 B3C3 C3C2 C2C3 C3D3 D3D2 D2D3 D3D2 D2D1 D1D2 D2D3 D3C3 C3B3 B3A3 A3A2 A2A3" routeLength="3480.79"/>
            <route cost="192.68" savings="-71.77" replacedOnEdge="D0D1" replacedOnIndex="31" reason="parkD0D1:parkingAreaReroute" replacedAtTime="553.00" probability="0" edges="A0A1 A1A2 A2A3 A3B3 B3C3 C3C2 C2C3 C3B3 B3B2 B2B3 B3B2 B2B1 B1B2 B2B1 B1B0 B0A0 A0A1 A1A2 A2A3 A3B3 B3C3 C3C2 C2C3 C3D3 D3D2 D2D3 D3D2 D2D1 D1D2 D2D1 D1D0 D0D1 D1D0 D0C0 C0B0 B0A0 A0A1 A1A2 A2A3" routeLength="3873.62"/>
            <route cost="172.38" savings="-36.97" replacedOnEdge="C0C1" replacedOnIndex="34" reason="parkC0C1:parkingAreaReroute" replacedAtTime="603.00" probability="0" edges="A0A1 A1A2 A2A3 A3B3 B3C3 C3C2 C2C3 C3B3 B3B2 B2B3 B3B2 B2B1 B1B2 B2B1 B1B0 B0A0 A0A1 A1A2 A2A3 A3B3 B3C3 C3C2 C2C3 C3D3 D3D2 D2D3 D3D2 D2D1 D1D2 D2D1 D1D0 D0D1 D1D0 D0C0 C0C1 C1C0 C0B0 B0A0 A0A1 A1A2 A2A3" routeLength="4067.56"/>
            <route cost="120.96" savings="-1.73" replacedOnEdge="C1C2" replacedOnIndex="35" reason="parkC1C2:parkingAreaReroute" replacedAtTime="619.00" probability="0" edges="A0A1 A1A2 A2A3 A3B3 B3C3 C3C2 C2C3 C3B3 B3B2 B2B3 B3B2 B2B1 B1B2 B2B1 B1B0 B0A0 A0A1 A1A2 A2A3 A3B3 B3C3 C3C2 C2C3 C3D3 D3D2 D2D3 D3D2 D2D1 D1D2 D2D1 D1D0 D0D1 D1D0 D0C0 C0C1 C1C2 C2C3 C3B3 B3A3 A3A2 A2A3" routeLength="4077.88"/>
            <route cost="147.11" savings="-41.70" replacedOnEdge="B2B3" replacedOnIndex="39" reason="parkB2B3:parkingAreaReroute" replacedAtTime="687.00" probability="0" edges="A0A1 A1A2 A2A3 A3B3 B3C3 C3C2 C2C3 C3B3 B3B2 B2B3 B3B2 B2B1 B1B2 B2B1 B1B0 B0A0 A0A1 A1A2 A2A3 A3B3 B3C3 C3C2 C2C3 C3D3 D3D2 D2D3 D3D2 D2D1 D1D2 D2D1 D1D0 D0D1 D1D0 D0C0 C0C1 C1C2 C2C3 C3B3 B3B2 B2B3 B3A3 A3A2 A2A3" routeLength="4282.15"/>
            <route cost="170.45" savings="-98.54" replacedOnEdge="B0B1" replacedOnIndex="43" reason="parkB0B1:parkingAreaReroute" replacedAtTime="752.00" probability="0" edges="A0A1 A1A2 A2A3 A3B3 B3C3 C3C2 C2C3 C3B3 B3B2 B2B3 B3B2 B2B1 B1B2 B2B1 B1B0 B0A0 A0A1 A1A2 A2A3 A3B3 B3C3 C3C2 C2C3 C3D3 D3D2 D2D3 D3D2 D2D1 D1D2 D2D1 D1D0 D0D1 D1D0 D0C0 C0C1 C1C2 C2C3 C3B3 B3B2 B2B3 B3B2 B2B1 B1B0 B0B1 B1B0 B0A0 A0A1 A1A2 A2A3" routeLength="4852.77"/>
            <route cost="104.22" savings="-1.73" replacedOnEdge="B1B2" replacedOnIndex="44" reason="parkB1B2:parkingAreaReroute" replacedAtTime="768.00" probability="0" edges="A0A1 A1A2 A2A3 A3B3 B3C3 C3C2 C2C3 C3B3 B3B2 B2B3 B3B2 B2B1 B1B2 B2B1 B1B0 B0A0 A0A1 A1A2 A2A3 A3B3 B3C3 C3C2 C2C3 C3D3 D3D2 D2D3 D3D2 D2D1 D1D2 D2D1 D1D0 D0D1 D1D0 D0C0 C0C1 C1C2 C2C3 C3B3 B3B2 B2B3 B3B2 B2B1 B1B0 B0B1 B1B2 B2B3 B3A3 A3A2 A2A3" routeLength="4863.09"/>
            <route cost="120.46" savings="-31.79" replacedOnEdge="A1A2" replacedOnIndex="49" reason="parkA1A2:parkingAreaReroute" replacedAtTime="851.00" probability="0" edges="A0A1 A1A2 A2A3 A3B3 B3C3 C3C2 C2C3 C3B3 B3B2 B2B3 B3B2 B2B1 B1B2 B2B1 B1B0 B0A0 A0A1 A1A2 A2A3 A3B3 B3C3 C3C2 C2C3 C3D3 D3D2 D2D3 D3D2 D2D1 D1D2 D2D1 D1D0 D0D1 D1D0 D0C0 C0C1 C1C2 C2C3 C3B3 B3B2 B2B3 B3B2 B2B1 B1B0 B0B1 B1B2 B2B1 B1B0 B0A0 A0A1 A1A2 A2A3" routeLength="5052.97"/>
            <route cost="32.97" savings="0.00" replacedOnEdge="A2A3" replacedOnIndex="50" reason="parkA2A3:parkingAreaReroute" replacedAtTime="868.00" probability="0" edges="A0A1 A1A2 A2A3 A3B3 B3C3 C3C2 C2C3 C3B3 B3B2 B2B3 B3B2 B2B1 B1B2 B2B1 B1B0 B0A0 A0A1 A1A2 A2A3 A3B3 B3C3 C3C2 C2C3 C3D3 D3D2 D2D3 D3D2 D2D1 D1D2 D2D1 D1D0 D0D1 D1D0 D0C0 C0C1 C1C2 C2C3 C3B3 B3B2 B2B3 B3B2 B2B1 B1B0 B0B1 B1B2 B2B1 B1B0 B0A0 A0A1 A1A2 A2A3" routeLength="5052.97"/>
            <route cost="157.87" savings="-141.66" replacedOnEdge="C2C3" replacedOnIndex="54" reason="parkC2C3:parkingAreaReroute" replacedAtTime="934.00" probability="0" edges="A0A1 A1A2 A2A3 A3B3 B3C3 C3C2 C2C3 C3B3 B3B2 B2B3 B3B2 B2B1 B1B2 B2B1 B1B0 B0A0 A0A1 A1A2 A2A3 A3B3 B3C3 C3C2 C2C3 C3D3 D3D2 D2D3 D3D2 D2D1 D1D2 D2D1 D1D0 D0D1 D1D0 D0C0 C0C1 C1C2 C2C3 C3B3 B3B2 B2B3 B3B2 B2B1 B1B0 B0B1 B1B2 B2B1 B1B0 B0A0 A0A1 A1A2 A2A3 A3B3 B3C3 C3C2 C2C3 C3B3 B3A3 A3A2 A2A3" routeLength="5854.27"/>
            <route cost="158.13" savings="-69.48" replacedOnEdge="D2D3" replacedOnIndex="57" reason="parkD2D3:parkingAreaReroute" replacedAtTime="984.00" probability="0" edges="A0A1 A1A2 A2A3 A3B3 B3C3 C3C2 C2C3 C3B3 B3B2 B2B3 B3B2 B2B1 B1B2 B2B1 B1B0 B0A0 A0A1 A1A2 A2A3 A3B3 B3C3 C3C2 C2C3 C3D3 D3D2 D2D3 D3D2 D2D1 D1D2 D2D1 D1D0 D0D1 D1D0 D0C0 C0C1 C1C2 C2C3 C3B3 B3B2 B2B3 B3B2 B2B1 B1B0 B0B1 B1B2 B2B1 B1B0 B0A0 A0A1 A1A2 A2A3 A3B3 B3C3 C3C2 C2C3 C3D3 D3D2 D2D3 D3C3 C3B3 B3A3 A3A2 A2A3" routeLength="6251.31"/>
            <route cost="177.65" savings="-73.50" edges="A0A1 A1A2 A2A3 A3B3 B3C3 C3C2 C2C3 C3B3 B3B2 B2B3 B3B2 B2B1 B1B2 B2B1 B1B0 B0A0 A0A1 A1A2 A2A3 A3B3 B3C3 C3C2 C2C3 C3D3 D3D2 D2D3 D3D2 D2D1 D1D2 D2D1 D1D0 D0D1 D1D0 D0C0 C0C1 C1C2 C2C3 C3B3 B3B2 B2B3 B3B2 B2B1 B1B0 B0B1 B1B2 B2B1 B1B0 B0A0 A0A1 A1A2 A2A3 A3B3 B3C3 C3C2 C2C3 C3D3 D3D2 D2D3 D3D2 D2D1 D1D2 D2D3 D3C3 C3B3 B3A3 A3A2 A2A3" exitTimes="31.00 47.00 64.00 79.00 96.00 113.00 129.00 146.00 169.00 187.00 205.00 222.00 239.00 257.00 273.00 289.00 306.00 323.00 339.00 354.00 371.00 388.00 405.00 421.00 438.00 455.00 472.00 494.00 512.00 529.00 553.00 570.00 587.00 602.00 619.00 636.00 652.00 668.00 686.00 703.00 719.00 736.00 752.00 768.00 785.00 802.00 818.00 834.00 851.00 868.00 884.00 899.00 916.00 933.00 950.00 966.00 983.00 -1 -1 -1 -1 -1 -1 -1 -1 -1 -1"/>
        </routeDistribution>
    </vehicle>

    <vehicle id="ego.7" type="car" depart="16.00" departSpeed="5.2086" speedFactor="0.6894" routeLength="549.95">
        <routeDistribution>
            <route cost="30.68" savings="0.00" replacedOnEdge="A2A3" replacedOnIndex="2" reason="parkA2A3:parkingAreaReroute" replacedAtTime="38.00" probability="0" edges="A0A1 A1A2 A2A3" routeLength="288.70"/>
            <route cost="58.21" savings="-48.10" edges="A0A1 A1A2 A2A3 A3A2 A2A1 A1A2 A2A3" exitTimes="27.00 38.00 48.00 59.00 70.00 -1 -1"/>
        </routeDistribution>
        <stop parkingArea="parkA1A2" duration="3600.00" started="114.00" ended="-1"/>
    </vehicle>

    <vehicle id="ego.8" type="car" depart="18.00" departSpeed="3.9531" speedFactor="0.2846" routeLength="3850.96">
        <routeDistribution>
            <route cost="74.32" savings="0.00" replacedOnEdge="A2A3" replacedOnIndex="2" reason="parkA2A3:parkingAreaReroute" replacedAtTime="67.00" probability="0" edges="A0A1 A1A2 A2A3" routeLength="288.70"/>
            <route cost="234.74" savings="-210.25" replacedOnEdge="B1B2" replacedOnIndex="6" reason="parkB1B2:parkingAreaReroute" replacedAtTime="167.00" probability="0" edges="A0A1 A1A2 A2A3 A3B3 B3B2 B2B1 B1B2 B2B3 B3A3 A3A2 A2A3" routeLength="1090.20"/>
            <route cost="131.67" savings="0.00" replacedOnEdge="B2B3" replacedOnIndex="7" reason="parkB2B3:parkingAreaReroute" replacedAtTime="192.00" probability="0" edges="A0A1 A1A2 A2A3 A3B3 B3B2 B2B1 B1B2 B2B3 B3A3 A3A2 A2A3" routeLength="1090.20"/>
            <route cost="210.50" savings="-104.15" replacedOnEdge="C2C3" replacedOnIndex="10" reason="parkC2C3:parkingAreaReroute" replacedAtTime="267.00" probability="0" edges="A0A1 A1A2 A2A3 A3B3 B3B2 B2B1 B1B2 B2B3 B3C3 C3C2 C2C3 C3B3 B3A3 A3A2 A2A3" routeLength="1484.14"/>
            <route cost="235.08" savings="-103.44" replacedOnEdge="D2D3" replacedOnIndex="13" reason="parkD2D3:parkingAreaReroute" replacedAtTime="342.00" probability="0" edges="A0A1 A1A2 A2A3 A3B3 B3B2 B2B1 B1B2 B2B3 B3C3 C3C2 C2C3 C3D3 D3D2 D2D3 D3C3 C3B3 B3A3 A3A2 A2A3" routeLength="1881.18"/>
            <route cost="263.82" savings="-107.98" replacedOnEdge="D1D2" replacedOnIndex="16" reason="parkD1D2:parkingAreaReroute" replacedAtTime="419.00" probability="0" edges="A0A1 A1A2 A2A3 A3B3 B3B2 B2B1 B1B2 B2B3 B3C3 C3C2 C2C3 C3D3 D3D2 D2D3 D3D2 D2D1 D1D2 D2D3 D3C3 C3B3 B3A3 A3A2 A2A3" routeLength="2284.33"/>
            <route cost="286.53" savings="-105.37" replacedOnEdge="D0D1" replacedOnIndex="19" reason="parkD0D1:parkingAreaReroute" replacedAtTime="497.00" probability="0" edges="A0A1 A1A2 A2A3 A3B3 B3B2 B2B1 B1B2 B2B3 B3C3 C3C2 C2C3 C3D3 D3D2 D2D3 D3D2 D2D1 D1D2 D2D1 D1D0 D0D1 D1D0 D0C0 C0B0 B0A0 A0A1 A1A2 A2A3" routeLength="2677.16"/>
            <route cost="256.62" savings="-53.56" replacedOnEdge="C0C1" replacedOnIndex="22" reason="parkC0C1:parkingAreaReroute" replacedAtTime="574.00" probability="0" edges="A0A1 A1A2 A2A3 A3B3 B3B2 B2B1 B1B2 B2B3 B3C3 C3C2 C2C3 C3D3 D3D2 D2D3 D3D2 D2D1 D1D2 D2D1 D1D0 D0D1 D1D0 D0C0 C0C1 C1C0 C0B0 B0A0 A0A1 A1A2 A2A3" routeLength="2871.10"/>
            <route cost="180.47" savings="-2.61" replacedOnEdge="C1C2" replacedOnIndex="23" reason="parkC1C2:parkingAreaReroute" replacedAtTime="599.00" probability="0" edges="A0A1 A1A2 A2A3 A3B3 B3B2 B2B1 B1B2 B2B3 B3C3 C3C2 C2C3 C3D3 D3D2 D2D3 D3D2 D2D1 D1D2 D2D1 D1D0 D0D1 D1D0 D0C0 C0C1 C1C2 C2C3 C3B3 B3A3 A3A2 A2A3" routeLength="2881.42"/>
            <route cost="261.17" savings="-104.20" replacedOnEdge="B1B2" replacedOnIndex="28" reason="parkB1B2:parkingAreaReroute" replacedAtTime="725.00" probability="0" edges="A0A1 A1A2 A2A3 A3B3 B3B2 B2B1 B1B2 B2B3 B3C3 C3C2 C2C3 C3D3 D3D2 D2D3 D3D2 D2D1 D1D2 D2D1 D1D0 D0D1 D1D0 D0C0 C0C1 C1C2 C2C1 C1C0 C0B0 B0B1 B1B2 B2B3 B3A3 A3A2 A2A3" routeLength="3275.56"/>
            <route cost="131.67" savings="0.00" replacedOnEdge="A2A3" replacedOnIndex="32" reason="parkA2A3:parkingAreaReroute" replacedAtTime="828.00" probability="0" edges="A0A1 A1A2 A2A3 A3B3 B3B2 B2B1 B1B2 B2B3 B3C3 C3C2 C2C3 C3D3 D3D2 D2D3 D3D2 D2D1 D1D2 D2D1 D1D0 D0D1 D1D0 D0C0 C0C1 C1C2 C2C1 C1C0 C0B0 B0B1 B1B2 B2B3 B3A3 A3A2 A2A3" routeLength="3275.56"/>
            <route cost="132.47" savings="-107.98" replacedOnEdge="A1A2" replacedOnIndex="35" reason="parkA1A2:parkingAreaReroute" replacedAtTime="906.00" probability="0" edges="A0A1 A1A2 A2A3 A3B3 B3B2 B2B1 B1B2 B2B3 B3C3 C3C2 C2C3 C3D3 D3D2 D2D3 D3D2 D2D1 D1D2 D2D1 D1D0 D0D1 D1D0 D0C0 C0C1 C1C2 C2C1 C1C0 C0B0 B0B1 B1B2 B2B3 B3A3 A3A2 A2A3 A3A2 A2A1 A1A2 A2A3" routeLength="3678.71"/>
            <route cost="157.79" savings="-107.98" replacedOnEdge="A0A1" replacedOnIndex="38" reason="parkA0A1:parkingAreaReroute" replacedAtTime="984.00" probability="0" edges="A0A1 A1A2 A2A3 A3B3 B3B2 B2B1 B1B2 B2B3 B3C3 C3C2 C2C3 C3D3 D3D2 D2D3 D3D2 D2D1 D1D2 D2D1 D1D0 D0D1 D1D0 D0C0 C0C1 C1C2 C2C1 C1C0 C0B0 B0B1 B1B2 B2B3 B3A3 A3A2 A2A3 A3A2 A2A1 A1A2 A2A1 A1A0 A0A1 A1A2 A2A3" routeLength="4081.86"/>
            <route cost="236.93" savings="-162.61" edges="A0A1 A1A2 A2A3 A3B3 B3B2 B2B1 B1B2 B2B3 B3C3 C3C2 C2C3 C3D3 D3D2 D2D3 D3D2 D2D1 D1D2 D2D1 D1D0 D0D1 D1D0 D0C0 C0C1 C1C2 C2C1 C1C0 C0B0 B0B1 B1B2 B2B3 B3A3 A3A2 A2A3 A3A2 A2A1 A1A2 A2A1 A1A0 A0A1 A1A0 A0B0 B0B1 B1B0 B0A0 A0A1 A1A2 A2A3" exitTimes="42.00 67.00 92.00 115.00 141.00 166.00 192.00 216.00 240.00 266.00 291.00 316.00 341.00 367.00 393.00 418.00 445.00 471.00 496.00 522.00 547.00 572.00 599.00 624.00 652.00 675.00 699.00 725.00 750.00 774.00 800.00 826.00 852.00 878.00 904.00 931.00 958.00 982.00 -1 -1 -1 -1 -1 -1 -1 -1 -1"/>
        </routeDistribution>
    </vehicle>

    <vehicle id="ego.9" type="car" depart="20.00" departSpeed="0.4052" speedFactor="1.4534" routeLength="2041.55">
        <routeDistribution>
            <route cost="21.35" savings="0.00" replacedOnEdge="A2A3" replacedOnIndex="2" reason="parkA2A3:parkingAreaReroute" replacedAtTime="70.00" probability="0" edges="A0A1 A1A2 A2A3" routeLength="288.70"/>
            <route cost="45.13" savings="-37.25" replacedOnEdge="A1A2" replacedOnIndex="5" reason="parkA1A2:parkingAreaReroute" replacedAtTime="115.00" probability="0" edges="A0A1 A1A2 A2A3 A3A2 A2A1 A1A2 A2A3" routeLength="691.85"/>
            <route cost="90.81" savings="-70.37" replacedOnEdge="C2C3" replacedOnIndex="10" reason="parkC2C3:parkingAreaReroute" replacedAtTime="192.00" probability="0" edges="A0A1 A1A2 A2A3 A3A2 A2A1 A1A2 A2A3 A3B3 B3C3 C3C2 C2C3 C3B3 B3A3 A3A2 A2A3" routeLength="1493.15"/>
            <route cost="83.58" savings="-35.50" replacedOnEdge="C1C2" replacedOnIndex="13" reason="parkC1C2:parkingAreaReroute" replacedAtTime="225.00" probability="0" edges="A0A1 A1A2 A2A3 A3A2 A2A1 A1A2 A2A3 A3B3 B3C3 C3C2 C2C3 C3C2 C2C1 C1C2 C2C3 C3B3 B3A3 A3A2 A2A3" routeLength="1888.30"/>
            <route cost="95.74" savings="-38.82" replacedOnEdge="C0C1" replacedOnIndex="16" reason="parkC0C1:parkingAreaReroute" replacedAtTime="248.00" probability="0" edges="A0A1 A1A2 A2A3 A3A2 A2A1 A1A2 A2A3 A3B3 B3C3 C3C2 C2C3 C3C2 C2C1 C1C2 C2C1 C1C0 C0C1 C1C0 C0B0 B0A0 A0A1 A1A2 A2A3" routeLength="2273.13"/>
            <route cost="93.20" savings="-27.16" edges="A0A1 A1A2 A2A3 A3A2 A2A1 A1A2 A2A3 A3B3 B3C3 C3C2 C2C3 C3C2 C2C1 C1C2 C2C1 C1C0 C0C1 C1C0 C0D0 D0D1 D1D2 D2D3 D3C3 C3B3 B3A3 A3A2 A2A3" exitTimes="45.00 70.00 94.00 101.00 108.00 148.00 154.00 159.00 171.00 191.00 210.00 218.00 224.00 233.00 239.00 245.00 253.00 260.00 266.00 271.00 -1 -1 -1 -1 -1 -1 -1"/>
        </routeDistribution>
        <stop parkingArea="parkD1D2" duration="3600.00" started="277.00" ended="-1"/>
    </vehicle>

    <vehicle id="ego.10" type="car" depart="23.00" departSpeed="0.8104" speedFactor="1.1315" routeLength="956.66">
        <routeDistribution>
            <route cost="21.43" savings="0.00" replacedOnEdge="A2A3" replacedOnIndex="2" reason="parkA2A3:parkingAreaReroute" replacedAtTime="73.00" probability="0" edges="A0A1 A1A2 A2A3" routeLength="288.70"/>
            <route cost="61.71" savings="-53.73" replacedOnEdge="A0A1" replacedOnIndex="6" reason="parkA0A1:parkingAreaReroute" replacedAtTime="118.00" probability="0" edges="A0A1 A1A2 A2A3 A3A2 A2A1 A1A0 A0A1 A1A2 A2A3" routeLength="885.64"/>
            <route cost="87.73" savings="-56.82" edges="A0A1 A1A2 A2A3 A3A2 A2A1 A1A0 A0A1 A1A0 A0B0 B0B1 B1B0 B0A0 A0A1 A1A2 A2A3" exitTimes="47.00 73.00 97.00 104.00 111.00 118.00 126.00 133.00 139.00 -1 -1 -1 -1 -1 -1"/>
        </routeDistribution>
        <stop parkingArea="parkB0B1" duration="3600.00" started="147.00" ended="-1"/>
    </vehicle>

    <vehicle id="ego.11" type="car" depart="26.00" departSpeed="1.2156" speedFactor="1.2354" routeLength="6842.72">
        <routeDistribution>
            <route cost="21.52" savings="0.00" replacedOnEdge="A2A3" replacedOnIndex="2" reason="parkA2A3:parkingAreaReroute" replacedAtTime="59.00" probability="0" edges="A0A1 A1A2 A2A3" routeLength="288.70"/>
            <route cost="44.11" savings="-36.49" replacedOnEdge="A1A2" replacedOnIndex="5" reason="parkA1A2:parkingAreaReroute" replacedAtTime="115.00" probability="0" edges="A0A1 A1A2 A2A3 A3A2 A2A1 A1A2 A2A3" routeLength="691.85"/>
            <route cost="63.14" savings="-42.69" replacedOnEdge="A0A1" replacedOnIndex="8" reason="parkA0A1:parkingAreaReroute" replacedAtTime="177.00" probability="0" edges="A0A1 A1A2 A2A3 A3A2 A2A1 A1A2 A2A1 A1A0 A0A1 A1A2 A2A3" routeLength="1095.00"/>
            <route cost="97.28" savings="-59.92" replacedOnEdge="B2B3" replacedOnIndex="13" reason="parkB2B3:parkingAreaReroute" replacedAtTime="224.00" probability="0" edges="A0A1 A1A2 A2A3 A3A2 A2A1 A1A2 A2A1 A1A0 A0A1 A1A2 A2A3 A3B3 B3B2 B2B3 B3A3 A3A2 A2A3" routeLength="1696.30"/>
            <route cost="80.55" savings="-39.27" replacedOnEdge="B1B2" replacedOnIndex="16" reason="parkB1B2:parkingAreaReroute" replacedAtTime="272.00" probability="0" edges="A0A1 A1A2 A2A3 A3A2 A2A1 A1A2 A2A1 A1A0 A0A1 A1A2 A2A3 A3B3 B3B2 B2B3 B3B2 B2B1 B1B2 B2B3 B3A3 A3A2 A2A3" routeLength="2091.45"/>
            <route cost="87.04" savings="-37.43" replacedOnEdge="B0B1" replacedOnIndex="19" reason="parkB0B1:parkingAreaReroute" replacedAtTime="305.00" probability="0" edges="A0A1 A1A2 A2A3 A3A2 A2A1 A1A2 A2A1 A1A0 A0A1 A1A2 A2A3 A3B3 B3B2 B2B3 B3B2 B2B1 B1B2 B2B1 B1B0 B0B1 B1B0 B0A0 A0A1 A1A2 A2A3" routeLength="2476.28"/>
            <route cost="89.54" savings="-36.25" replacedOnEdge="C0C1" replacedOnIndex="22" reason="parkC0C1:parkingAreaReroute" replacedAtTime="331.00" probability="0" edges="A0A1 A1A2 A2A3 A3A2 A2A1 A1A2 A2A1 A1A0 A0A1 A1A2 A2A3 A3B3 B3B2 B2B3 B3B2 B2B1 B1B2 B2B1 B1B0 B0B1 B1B0 B0C0 C0C1 C1C0 C0B0 B0A0 A0A1 A1A2 A2A3" routeLength="2880.55"/>
            <route cost="62.67" savings="-3.57" replacedOnEdge="C1C2" replacedOnIndex="23" reason="parkC1C2:parkingAreaReroute" replacedAtTime="337.00" probability="0" edges="A0A1 A1A2 A2A3 A3A2 A2A1 A1A2 A2A1 A1A0 A0A1 A1A2 A2A3 A3B3 B3B2 B2B3 B3B2 B2B1 B1B2 B2B1 B1B0 B0B1 B1B0 B0C0 C0C1 C1C2 C2C3 C3B3 B3A3 A3A2 A2A3" routeLength="2890.87"/>
            <route cost="56.20" savings="0.00" replacedOnEdge="C2C3" replacedOnIndex="24" reason="parkC2C3:parkingAreaReroute" replacedAtTime="343.00" probability="0" edges="A0A1 A1A2 A2A3 A3A2 A2A1 A1A2 A2A1 A1A0 A0A1 A1A2 A2A3 A3B3 B3B2 B2B3 B3B2 B2B1 B1B2 B2B1 B1B0 B0B1 B1B0 B0C0 C0C1 C1C2 C2C3 C3B3 B3A3 A3A2 A2A3" routeLength="2890.87"/>
            <route cost="82.55" savings="-33.63" replacedOnEdge="D2D3" replacedOnIndex="27" reason="parkD2D3:parkingAreaReroute" replacedAtTime="378.00" probability="0" edges="A0A1 A1A2 A2A3 A3A2 A2A1 A1A2 A2A1 A1A0 A0A1 A1A2 A2A3 A3B3 B3B2 B2B3 B3B2 B2B1 B1B2 B2B1 B1B0 B0B1 B1B0 B0C0 C0C1 C1C2 C2C3 C3D3 D3D2 D2D3 D3C3 C3B3 B3A3 A3A2 A2A3" routeLength="3287.91"/>
            <route cost="88.05" savings="-37.54" replacedOnEdge="D1D2" replacedOnIndex="30" reason="parkD1D2:parkingAreaReroute" replacedAtTime="434.00" probability="0" edges="A0A1 A1A2 A2A3 A3A2 A2A1 A1A2 A2A1 A1A0 A0A1 A1A2 A2A3 A3B3 B3B2 B2B3 B3B2 B2B1 B1B2 B2B1 B1B0 B0B1 B1B0 B0C0 C0C1 C1C2 C2C3 C3D3 D3D2 D2D3 D3D2 D2D1 D1D2 D2D3 D3C3 C3B3 B3A3 A3A2 A2A3" routeLength="3691.06"/>
            <route cost="92.53" savings="-34.48" replacedOnEdge="D0D1" replacedOnIndex="33" reason="parkD0D1:parkingAreaReroute" replacedAtTime="509.00" probability="0" edges="A0A1 A1A2 A2A3 A3A2 A2A1 A1A2 A2A1 A1A0 A0A1 A1A2 A2A3 A3B3 B3B2 B2B3 B3B2 B2B1 B1B2 B2B1 B1B0 B0B1 B1B0 B0C0 C0C1 C1C2 C2C3 C3D3 D3D2 D2D3 D3D2 D2D1 D1D2 D2D1 D1D0 D0D1 D1D0 D0C0 C0B0 B0A0 A0A1 A1A2 A2A3" routeLength="4083.89"/>
            <route cost="83.42" savings="-20.75" replacedOnEdge="B1B2" replacedOnIndex="38" reason="parkB1B2:parkingAreaReroute" replacedAtTime="606.00" probability="0" edges="A0A1 A1A2 A2A3 A3A2 A2A1 A1A2 A2A1 A1A0 A0A1 A1A2 A2A3 A3B3 B3B2 B2B3 B3B2 B2B1 B1B2 B2B1 B1B0 B0B1 B1B0 B0C0 C0C1 C1C2 C2C3 C3D3 D3D2 D2D3 D3D2 D2D1 D1D2 D2D1 D1D0 D0D1 D1D0 D0C0 C0B0 B0B1 B1B2 B2B3 B3A3 A3A2 A2A3" routeLength="4288.15"/>
            <route cost="55.69" savings="-14.55" replacedOnEdge="A1A2" replacedOnIndex="43" reason="parkA1A2:parkingAreaReroute" replacedAtTime="660.00" probability="0" edges="A0A1 A1A2 A2A3 A3A2 A2A1 A1A2 A2A1 A1A0 A0A1 A1A2 A2A3 A3B3 B3B2 B2B3 B3B2 B2B1 B1B2 B2B1 B1B0 B0B1 B1B0 B0C0 C0C1 C1C2 C2C3 C3D3 D3D2 D2D3 D3D2 D2D1 D1D2 D2D1 D1D0 D0D1 D1D0 D0C0 C0B0 B0B1 B1B2 B2B1 B1B0 B0A0 A0A1 A1A2 A2A3" routeLength="4478.03"/>
            <route cost="14.17" savings="0.00" replacedOnEdge="A2A3" replacedOnIndex="44" reason="parkA2A3:parkingAreaReroute" replacedAtTime="672.00" probability="0" edges="A0A1 A1A2 A2A3 A3A2 A2A1 A1A2 A2A1 A1A0 A0A1 A1A2 A2A3 A3B3 B3B2 B2B3 B3B2 B2B1 B1B2 B2B1 B1B0 B0B1 B1B0 B0C0 C0C1 C1C2 C2C3 C3D3 D3D2 D2D3 D3D2 D2D1 D1D2 D2D1 D1D0 D0D1 D1D0 D0C0 C0B0 B0B1 B1B2 B2B1 B1B0 B0A0 A0A1 A1A2 A2A3" routeLength="4478.03"/>
            <route cost="74.62" savings="-67.61" replacedOnEdge="C2C3" replacedOnIndex="48" reason="parkC2C3:parkingAreaReroute" replacedAtTime="721.00" probability="0" edges="A0A1 A1A2 A2A3 A3A2 A2A1 A1A2 A2A1 A1A0 A0A1 A1A2 A2A3 A3B3 B3B2 B2B3 B3B2 B2B1 B1B2 B2B1 B1B0 B0B1 B1B0 B0C0 C0C1 C1C2 C2C3 C3D3 D3D2 D2D3 D3D2 D2D1 D1D2 D2D1 D1D0 D0D1 D1D0 D0C0 C0B0 B0B1 B1B2 B2B1 B1B0 B0A0 A0A1 A1A2 A2A3 A3B3 B3C3 C3C2 C2C3 C3B3 B3A3 A3A2 A2A3" routeLength="5279.33"/>
            <route cost="67.34" savings="-24.27" replacedOnEdge="B2B3" replacedOnIndex="51" reason="parkB2B3:parkingAreaReroute" replacedAtTime="768.00" probability="0" edges="A0A1 A1A2 A2A3 A3A2 A2A1 A1A2 A2A1 A1A0 A0A1 A1A2 A2A3 A3B3 B3B2 B2B3 B3B2 B2B1 B1B2 B2B1 B1B0 B0B1 B1B0 B0C0 C0C1 C1C2 C2C3 C3D3 D3D2 D2D3 D3D2 D2D1 D1D2 D2D1 D1D0 D0D1 D1D0 D0C0 C0B0 B0B1 B1B2 B2B1 B1B0 B0A0 A0A1 A1A2 A2A3 A3B3 B3C3 C3C2 C2C3 C3B3 B3B2 B2B3 B3A3 A3A2 A2A3" routeLength="5483.60"/>
            <route cost="88.37" savings="-52.45" replacedOnEdge="B0B1" replacedOnIndex="55" reason="parkB0B1:parkingAreaReroute" replacedAtTime="828.00" probability="0" edges="A0A1 A1A2 A2A3 A3A2 A2A1 A1A2 A2A1 A1A0 A0A1 A1A2 A2A3 A3B3 B3B2 B2B3 B3B2 B2B1 B1B2 B2B1 B1B0 B0B1 B1B0 B0C0 C0C1 C1C2 C2C3 C3D3 D3D2 D2D3 D3D2 D2D1 D1D2 D2D1 D1D0 D0D1 D1D0 D0C0 C0B0 B0B1 B1B2 B2B1 B1B0 B0A0 A0A1 A1A2 A2A3 A3B3 B3C3 C3C2 C2C3 C3B3 B3B2 B2B3 B3B2 B2B1 B1B0 B0B1 B1B0 B0A0 A0A1 A1A2 A2A3" routeLength="6054.22"/>