<?xml version="1.0" encoding="UTF-8"?>

<!-- generated on 2024-08-26 15:32:26 by Eclipse SUMO sumo Version v1_20_0+1721-016cfd09667
This data file and the accompanying materials
are made available under the terms of the Eclipse Public License v2.0
which accompanies this distribution, and is available at
http://www.eclipse.org/legal/epl-v20.html
This file may also be made available under the following Secondary
Licenses when the conditions for such availability set forth in the Eclipse
Public License 2.0 are satisfied: GNU General Public License, version 2
or later which is available at
https://www.gnu.org/licenses/old-licenses/gpl-2.0-standalone.html
SPDX-License-Identifier: EPL-2.0 OR GPL-2.0-or-later
<sumoConfiguration xmlns:xsi="http://www.w3.org/2001/XMLSchema-instance" xsi:noNamespaceSchemaLocation="http://sumo.dlr.de/xsd/sumoConfiguration.xsd">

    <input>
        <net-file value="net.net.xml"/>
        <route-files value="input_routes.rou.xml"/>
        <additional-files value="input_additional.add.xml"/>
    </input>

    <output>
        <write-license value="true"/>
        <tripinfo-output value="tripinfos.xml"/>
        <stop-output value="stopinfos.xml"/>
    </output>

    <processing>
        <ignore-route-errors value="true"/>
        <default.speeddev value="0"/>
    </processing>

    <report>
        <xml-validation value="never"/>
        <duration-log.disable value="true"/>
        <no-step-log value="true"/>
    </report>

    <mesoscopic>
        <mesosim value="true"/>
    </mesoscopic>

</sumoConfiguration>
-->

<tripinfos xmlns:xsi="http://www.w3.org/2001/XMLSchema-instance" xsi:noNamespaceSchemaLocation="http://sumo.dlr.de/xsd/tripinfo_file.xsd">
    <tripinfo id="resident" depart="0.00" departLane="a_0" departPos="0.00" departSpeed="13.89" departDelay="0.00" arrival="62.00" arrivalLane="a_0" arrivalPos="304.81" arrivalSpeed="2.15" duration="62.00" routeLength="304.81" waitingTime="0.00" waitingCount="0" stopTime="40.00" timeLoss="40.00" rerouteNo="0" devices="tripinfo_resident" vType="resident" speedFactor="1.00" vaporized=""/>
    <tripinfo id="foreigner" depart="0.00" departLane="a_0" departPos="0.00" departSpeed="12.47" departDelay="0.00" arrival="63.00" arrivalLane="a_0" arrivalPos="304.81" arrivalSpeed="2.15" duration="63.00" routeLength="304.81" waitingTime="0.00" waitingCount="0" stopTime="20.00" timeLoss="40.83" rerouteNo="0" devices="tripinfo_foreigner" vType="foreigner" speedFactor="1.00" vaporized=""/>
    <tripinfo id="guest" depart="5.00" departLane="a_0" departPos="0.00" departSpeed="13.89" departDelay="0.00" arrival="67.00" arrivalLane="a_0" arrivalPos="304.81" arrivalSpeed="2.15" duration="62.00" routeLength="304.81" waitingTime="0.00" waitingCount="0" stopTime="40.00" timeLoss="40.00" rerouteNo="0" devices="tripinfo_guest" vType="foreigner" speedFactor="1.00" vaporized=""/>
</tripinfos>
