<?xml version="1.0" encoding="UTF-8"?>

<!-- generated on 2025-11-18T16:34:05.757380+01:00 by Eclipse SUMO sumo v1_25_0+0086-b1f02afa5bd
This data file and the accompanying materials
are made available under the terms of the Eclipse Public License v2.0
which accompanies this distribution, and is available at
http://www.eclipse.org/legal/epl-v20.html
This file may also be made available under the following Secondary
Licenses when the conditions for such availability set forth in the Eclipse
Public License 2.0 are satisfied: GNU General Public License, version 2
or later which is available at
https://www.gnu.org/licenses/old-licenses/gpl-2.0-standalone.html
SPDX-License-Identifier: EPL-2.0 OR GPL-2.0-or-later
<sumoConfiguration xmlns:xsi="http://www.w3.org/2001/XMLSchema-instance" xsi:noNamespaceSchemaLocation="http://sumo.dlr.de/xsd/sumoConfiguration.xsd">

    <input>
        <net-file value="net.net.xml"/>
        <route-files value="input_routes.rou.xml"/>
        <additional-files value="input_additional.add.xml"/>
    </input>

    <output>
        <write-license value="true"/>
    </output>

    <processing>
        <default.speeddev value="0"/>
    </processing>

    <routing>
        <weights.separate-turns value="1.0"/>
    </routing>

    <report>
        <xml-validation value="never"/>
        <duration-log.statistics value="true"/>
        <no-step-log value="true"/>
    </report>

</sumoConfiguration>
-->

<meandata xmlns:xsi="http://www.w3.org/2001/XMLSchema-instance" xsi:noNamespaceSchemaLocation="http://sumo.dlr.de/xsd/meandata_file.xsd">
    <interval begin="0.00" end="600.00" id="ed">
        <edge id=":gneJ1_0" sampledSeconds="207.73" traveltime="0.84" overlapTraveltime="1.22" density="21.37" overlapDensity="30.91" laneDensity="21.37" occupancy="10.69" waitingTime="0.00" timeLoss="9.46" speed="13.26" speedRelative="0.95" departed="0" arrived="0" entered="170" left="170" laneChangedFrom="0" laneChangedTo="0" flow="1020.00"/>
        <edge id=":gneJ1_4" sampledSeconds="208.38" traveltime="0.87" overlapTraveltime="1.24" density="21.09" overlapDensity="30.23" laneDensity="10.54" occupancy="5.26" waitingTime="0.00" timeLoss="9.53" speed="13.25" speedRelative="0.95" departed="0" arrived="0" entered="168" left="167" laneChangedFrom="0" laneChangedTo="0" flow="1006.32"/>
        <edge id=":gneJ2_1" sampledSeconds="260.84" traveltime="1.09" overlapTraveltime="1.47" density="22.44" overlapDensity="30.19" laneDensity="22.44" occupancy="11.20" waitingTime="0.00" timeLoss="13.41" speed="13.18" speedRelative="0.95" departed="0" arrived="0" entered="178" left="177" laneChangedFrom="0" laneChangedTo="0" flow="1063.26"/>
        <edge id=":gneJ2_4" sampledSeconds="111.45" traveltime="1.51" overlapTraveltime="2.27" density="13.66" overlapDensity="20.57" laneDensity="13.66" occupancy="6.77" waitingTime="0.00" timeLoss="37.79" speed="6.17" speedRelative="0.95" departed="0" arrived="0" entered="49" left="49" laneChangedFrom="0" laneChangedTo="0" flow="294.00"/>
        <edge id=":gneJ2_5" sampledSeconds="123.82" traveltime="1.15" overlapTraveltime="1.53" density="10.47" overlapDensity="13.92" laneDensity="10.47" occupancy="5.19" waitingTime="0.00" timeLoss="8.18" speed="12.97" speedRelative="0.93" departed="0" arrived="0" entered="81" left="81" laneChangedFrom="0" laneChangedTo="0" flow="486.00"/>
        <edge id=":gneJ2_6" sampledSeconds="562.50" traveltime="92.38" overlapTraveltime="101.66" density="133.33" overlapDensity="133.33" laneDensity="133.33" occupancy="77.83" waitingTime="530.00" timeLoss="555.02" speed="0.11" speedRelative="0.01" departed="0" arrived="0" entered="6" left="5" laneChangedFrom="0" laneChangedTo="0" flow="30.81"/>
        <edge id=":gneJ2_10" sampledSeconds="16.96" traveltime="2.61" overlapTraveltime="3.39" density="2.63" overlapDensity="3.42" laneDensity="2.63" occupancy="0.93" waitingTime="0.00" timeLoss="10.91" speed="3.91" speedRelative="0.49" departed="0" arrived="0" entered="5" left="5" laneChangedFrom="0" laneChangedTo="0" flow="30.00"/>
        <edge id=":gneJ3_0" sampledSeconds="218.94" traveltime="0.85" overlapTraveltime="1.22" density="22.56" overlapDensity="32.58" laneDensity="22.56" occupancy="11.26" waitingTime="0.00" timeLoss="10.17" speed="13.24" speedRelative="0.95" departed="0" arrived="0" entered="179" left="179" laneChangedFrom="0" laneChangedTo="0" flow="1074.00"/>
        <edge id=":gneJ3_4" sampledSeconds="97.66" traveltime="0.84" overlapTraveltime="1.22" density="10.05" overlapDensity="14.53" laneDensity="10.05" occupancy="5.02" waitingTime="0.00" timeLoss="4.36" speed="13.27" speedRelative="0.96" departed="0" arrived="0" entered="80" left="80" laneChangedFrom="0" laneChangedTo="0" flow="480.00"/>
        <edge id=":gneJ5_0" sampledSeconds="104.37" traveltime="1.52" overlapTraveltime="2.27" density="12.94" overlapDensity="19.26" laneDensity="12.94" occupancy="6.36" waitingTime="0.00" timeLoss="36.65" speed="6.18" speedRelative="0.95" departed="0" arrived="0" entered="46" left="46" laneChangedFrom="0" laneChangedTo="0" flow="276.00"/>
        <edge id=":gneJ5_1" sampledSeconds="10.76" traveltime="2.10" overlapTraveltime="2.69" density="1.25" overlapDensity="1.60" laneDensity="1.25" occupancy="0.50" waitingTime="0.00" timeLoss="6.10" speed="6.02" speedRelative="0.43" departed="0" arrived="0" entered="4" left="4" laneChangedFrom="0" laneChangedTo="0" flow="24.00"/>
        <edge id="-a" sampledSeconds="1234.92" traveltime="7.02" overlapTraveltime="7.40" density="21.31" overlapDensity="22.18" laneDensity="21.31" occupancy="10.60" waitingTime="0.00" timeLoss="59.32" speed="13.22" speedRelative="0.95" departed="0" arrived="168" entered="170" left="0" laneChangedFrom="0" laneChangedTo="0" flow="1014.08"/>
        <edge id="-b" sampledSeconds="3855.38" traveltime="21.81" overlapTraveltime="22.19" density="21.88" overlapDensity="22.25" laneDensity="21.88" occupancy="10.94" waitingTime="0.00" timeLoss="180.07" speed="13.24" speedRelative="0.95" departed="0" arrived="0" entered="177" left="170" laneChangedFrom="0" laneChangedTo="0" flow="1042.94"/>
        <edge id="-c" sampledSeconds="1265.19" traveltime="6.72" overlapTraveltime="7.10" density="22.48" overlapDensity="23.75" laneDensity="22.48" occupancy="11.24" waitingTime="0.00" timeLoss="61.52" speed="13.21" speedRelative="0.95" departed="0" arrived="0" entered="179" left="178" laneChangedFrom="0" laneChangedTo="0" flow="1069.66"/>
        <edge id="-d" sampledSeconds="1792.95" traveltime="10.10" overlapTraveltime="10.48" density="30.98" overlapDensity="32.20" laneDensity="30.98" occupancy="15.80" waitingTime="0.00" timeLoss="587.84" speed="9.34" speedRelative="0.67" departed="183" arrived="0" entered="0" left="179" laneChangedFrom="0" laneChangedTo="0" flow="1024.40"/>
        <edge id="a" sampledSeconds="1681.92" traveltime="10.14" overlapTraveltime="10.51" density="29.07" overlapDensity="30.21" laneDensity="29.07" occupancy="14.82" waitingTime="0.00" timeLoss="555.33" speed="9.30" speedRelative="0.67" departed="171" arrived="0" entered="0" left="168" laneChangedFrom="0" laneChangedTo="0" flow="957.43"/>
        <edge id="b" sampledSeconds="16329.72" traveltime="104.01" overlapTraveltime="104.78" density="93.75" overlapDensity="94.24" laneDensity="46.88" occupancy="23.45" waitingTime="11604.00" timeLoss="13003.30" speed="2.80" speedRelative="0.20" departed="0" arrived="0" entered="167" left="136" laneChangedFrom="0" laneChangedTo="0" flow="937.18"/>
        <edge id="c" sampledSeconds="569.55" traveltime="6.70" overlapTraveltime="7.08" density="10.12" overlapDensity="10.69" laneDensity="10.12" occupancy="5.06" waitingTime="0.00" timeLoss="26.41" speed="13.25" speedRelative="0.95" departed="0" arrived="0" entered="81" left="80" laneChangedFrom="0" laneChangedTo="0" flow="482.72"/>
        <edge id="d" sampledSeconds="584.41" traveltime="7.01" overlapTraveltime="7.38" density="10.01" overlapDensity="10.50" laneDensity="10.01" occupancy="5.00" waitingTime="0.00" timeLoss="27.03" speed="13.25" speedRelative="0.95" departed="0" arrived="79" entered="80" left="0" laneChangedFrom="0" laneChangedTo="0" flow="477.61"/>
        <edge id="f" sampledSeconds="1172.09" traveltime="23.66" overlapTraveltime="24.48" density="6.47" overlapDensity="6.69" laneDensity="6.47" occupancy="3.23" waitingTime="0.00" timeLoss="125.63" speed="12.13" speedRelative="0.87" departed="0" arrived="0" entered="49" left="46" laneChangedFrom="0" laneChangedTo="0" flow="287.44"/>
        <edge id="g" sampledSeconds="114.41" traveltime="21.90" overlapTraveltime="23.13" density="2.06" overlapDensity="2.15" laneDensity="2.06" occupancy="1.03" waitingTime="59.00" timeLoss="81.01" speed="4.05" speedRelative="0.29" departed="0" arrived="0" entered="5" left="4" laneChangedFrom="0" laneChangedTo="0" flow="29.99"/>
        <edge id="h" sampledSeconds="410.29" traveltime="7.99" overlapTraveltime="8.38" density="7.09" overlapDensity="7.37" laneDensity="7.09" occupancy="3.45" waitingTime="0.00" timeLoss="65.50" speed="11.67" speedRelative="0.84" departed="0" arrived="49" entered="50" left="0" laneChangedFrom="0" laneChangedTo="0" flow="296.19"/>
    </interval>
    <interval begin="600.00" end="1200.00" id="ed">
        <edge id=":gneJ1_0" sampledSeconds="237.53" traveltime="0.85" overlapTraveltime="1.22" density="24.44" overlapDensity="35.35" laneDensity="24.44" occupancy="12.22" waitingTime="0.00" timeLoss="11.26" speed="13.23" speedRelative="0.95" departed="0" arrived="0" entered="194" left="194" laneChangedFrom="0" laneChangedTo="0" flow="1164.00"/>
        <edge id=":gneJ1_4" sampledSeconds="40.70" traveltime="0.87" overlapTraveltime="1.25" density="4.08" overlapDensity="5.90" laneDensity="2.04" occupancy="1.03" waitingTime="0.00" timeLoss="2.12" speed="13.17" speedRelative="0.95" departed="0" arrived="0" entered="32" left="33" laneChangedFrom="0" laneChangedTo="0" flow="193.68"/>
        <edge id=":gneJ2_1" sampledSeconds="285.81" traveltime="1.09" overlapTraveltime="1.47" density="24.56" overlapDensity="33.08" laneDensity="24.56" occupancy="12.28" waitingTime="0.00" timeLoss="15.07" speed="13.16" speedRelative="0.95" departed="0" arrived="0" entered="193" left="194" laneChangedFrom="0" laneChangedTo="0" flow="1162.74"/>
        <edge id=":gneJ2_4" sampledSeconds="46.09" traveltime="1.53" overlapTraveltime="2.30" density="5.65" overlapDensity="8.51" laneDensity="5.65" occupancy="2.80" waitingTime="0.00" timeLoss="15.81" speed="6.09" speedRelative="0.94" departed="0" arrived="0" entered="20" left="20" laneChangedFrom="0" laneChangedTo="0" flow="120.00"/>
        <edge id=":gneJ2_5" sampledSeconds="29.43" traveltime="1.17" overlapTraveltime="1.55" density="2.49" overlapDensity="3.31" laneDensity="2.49" occupancy="1.23" waitingTime="0.00" timeLoss="2.31" speed="12.80" speedRelative="0.92" departed="0" arrived="0" entered="19" left="19" laneChangedFrom="0" laneChangedTo="0" flow="114.00"/>
        <edge id=":gneJ2_6" sampledSeconds="598.82" traveltime="147.95" overlapTraveltime="149.71" density="133.33" overlapDensity="133.33" laneDensity="133.33" occupancy="83.28" waitingTime="577.00" timeLoss="593.36" speed="0.07" speedRelative="0.01" departed="0" arrived="0" entered="4" left="4" laneChangedFrom="0" laneChangedTo="0" flow="19.24"/>
        <edge id=":gneJ2_10" sampledSeconds="12.88" traveltime="2.42" overlapTraveltime="3.22" density="1.95" overlapDensity="2.60" laneDensity="1.95" occupancy="0.72" waitingTime="0.00" timeLoss="7.60" speed="4.12" speedRelative="0.51" departed="0" arrived="0" entered="4" left="4" laneChangedFrom="0" laneChangedTo="0" flow="24.00"/>
        <edge id=":gneJ3_0" sampledSeconds="238.59" traveltime="0.85" overlapTraveltime="1.22" density="24.56" overlapDensity="35.51" laneDensity="24.56" occupancy="12.28" waitingTime="0.00" timeLoss="11.16" speed="13.24" speedRelative="0.95" departed="0" arrived="0" entered="195" left="195" laneChangedFrom="0" laneChangedTo="0" flow="1170.00"/>
        <edge id=":gneJ3_4" sampledSeconds="24.45" traveltime="0.84" overlapTraveltime="1.22" density="2.51" overlapDensity="3.64" laneDensity="2.51" occupancy="1.26" waitingTime="0.00" timeLoss="1.12" speed="13.25" speedRelative="0.95" departed="0" arrived="0" entered="20" left="20" laneChangedFrom="0" laneChangedTo="0" flow="120.00"/>
        <edge id=":gneJ5_0" sampledSeconds="53.30" traveltime="1.56" overlapTraveltime="2.32" density="6.64" overlapDensity="9.84" laneDensity="6.64" occupancy="3.24" waitingTime="0.00" timeLoss="19.36" speed="6.05" speedRelative="0.93" departed="0" arrived="0" entered="23" left="23" laneChangedFrom="0" laneChangedTo="0" flow="138.00"/>
        <edge id=":gneJ5_1" sampledSeconds="13.34" traveltime="2.08" overlapTraveltime="2.67" density="1.54" overlapDensity="1.98" laneDensity="1.54" occupancy="0.61" waitingTime="0.00" timeLoss="7.51" speed="6.07" speedRelative="0.44" departed="0" arrived="0" entered="5" left="5" laneChangedFrom="0" laneChangedTo="0" flow="30.00"/>
        <edge id="-a" sampledSeconds="1415.20" traveltime="7.02" overlapTraveltime="7.39" density="24.36" overlapDensity="25.42" laneDensity="24.36" occupancy="12.14" waitingTime="0.00" timeLoss="67.68" speed="13.23" speedRelative="0.95" departed="0" arrived="193" entered="194" left="0" laneChangedFrom="0" laneChangedTo="0" flow="1159.97"/>
        <edge id="-b" sampledSeconds="4296.30" traveltime="21.82" overlapTraveltime="22.19" density="24.37" overlapDensity="24.79" laneDensity="24.37" occupancy="12.18" waitingTime="0.00" timeLoss="201.73" speed="13.24" speedRelative="0.95" departed="0" arrived="0" entered="194" left="194" laneChangedFrom="0" laneChangedTo="0" flow="1161.43"/>
        <edge id="-c" sampledSeconds="1379.10" traveltime="6.72" overlapTraveltime="7.10" density="24.50" overlapDensity="25.88" laneDensity="24.50" occupancy="12.25" waitingTime="0.00" timeLoss="67.45" speed="13.21" speedRelative="0.95" departed="0" arrived="0" entered="195" left="193" laneChangedFrom="0" laneChangedTo="0" flow="1165.66"/>
        <edge id="-d" sampledSeconds="1934.98" traveltime="10.12" overlapTraveltime="10.49" density="33.43" overlapDensity="34.75" laneDensity="33.43" occupancy="17.05" waitingTime="0.00" timeLoss="636.30" speed="9.32" speedRelative="0.67" departed="194" arrived="0" entered="0" left="195" laneChangedFrom="0" laneChangedTo="0" flow="1103.26"/>
        <edge id="a" sampledSeconds="303.11" traveltime="9.89" overlapTraveltime="10.25" density="5.23" overlapDensity="5.44" laneDensity="5.23" occupancy="2.67" waitingTime="0.00" timeLoss="94.93" speed="9.54" speedRelative="0.69" departed="29" arrived="0" entered="0" left="32" laneChangedFrom="0" laneChangedTo="0" flow="176.62"/>
        <edge id="b" sampledSeconds="14331.36" traveltime="374.06" overlapTraveltime="374.11" density="82.52" overlapDensity="82.71" laneDensity="41.26" occupancy="20.64" waitingTime="12472.00" timeLoss="13507.64" speed="0.79" speedRelative="0.06" departed="0" arrived="0" entered="33" left="43" laneChangedFrom="0" laneChangedTo="0" flow="229.36"/>
        <edge id="c" sampledSeconds="138.98" traveltime="6.72" overlapTraveltime="7.10" density="2.47" overlapDensity="2.61" laneDensity="2.47" occupancy="1.23" waitingTime="0.00" timeLoss="6.81" speed="13.21" speedRelative="0.95" departed="0" arrived="0" entered="19" left="20" laneChangedFrom="0" laneChangedTo="0" flow="117.28"/>
        <edge id="d" sampledSeconds="149.40" traveltime="7.00" overlapTraveltime="7.37" density="2.56" overlapDensity="2.68" laneDensity="2.56" occupancy="1.28" waitingTime="0.00" timeLoss="6.75" speed="13.26" speedRelative="0.95" departed="0" arrived="21" entered="20" left="0" laneChangedFrom="0" laneChangedTo="0" flow="122.39"/>
        <edge id="f" sampledSeconds="518.43" traveltime="23.63" overlapTraveltime="24.54" density="2.84" overlapDensity="2.96" laneDensity="2.84" occupancy="1.43" waitingTime="0.00" timeLoss="54.90" speed="12.10" speedRelative="0.87" departed="0" arrived="0" entered="20" left="23" laneChangedFrom="0" laneChangedTo="0" flow="126.56"/>
        <edge id="g" sampledSeconds="118.26" traveltime="28.02" overlapTraveltime="29.17" density="2.10" overlapDensity="2.22" laneDensity="2.10" occupancy="1.07" waitingTime="76.00" timeLoss="90.89" speed="3.22" speedRelative="0.23" departed="0" arrived="0" entered="4" left="5" laneChangedFrom="0" laneChangedTo="0" flow="24.01"/>
        <edge id="h" sampledSeconds="236.46" traveltime="7.94" overlapTraveltime="8.32" density="4.08" overlapDensity="4.25" laneDensity="4.08" occupancy="1.99" waitingTime="0.00" timeLoss="36.39" speed="11.75" speedRelative="0.85" departed="0" arrived="29" entered="28" left="0" laneChangedFrom="0" laneChangedTo="0" flow="171.81"/>
    </interval>
    <interval begin="1200.00" end="1360.00" id="ed">
        <edge id=":gneJ1_0" sampledSeconds="44.29" traveltime="0.85" overlapTraveltime="1.23" density="17.13" overlapDensity="24.72" laneDensity="17.13" occupancy="8.55" waitingTime="0.00" timeLoss="2.31" speed="13.17" speedRelative="0.95" departed="0" arrived="0" entered="36" left="36" laneChangedFrom="0" laneChangedTo="0" flow="810.00"/>
        <edge id=":gneJ2_1" sampledSeconds="43.07" traveltime="1.10" overlapTraveltime="1.49" density="13.90" overlapDensity="18.69" laneDensity="13.90" occupancy="6.93" waitingTime="0.00" timeLoss="2.56" speed="13.06" speedRelative="0.94" departed="0" arrived="0" entered="29" left="29" laneChangedFrom="0" laneChangedTo="0" flow="652.50"/>
        <edge id=":gneJ2_6" sampledSeconds="125.03" traveltime="5.07" overlapTraveltime="5.82" density="112.29" overlapDensity="131.78" laneDensity="112.29" occupancy="55.67" waitingTime="80.00" timeLoss="96.69" speed="1.88" speedRelative="0.23" departed="0" arrived="0" entered="21" left="22" laneChangedFrom="0" laneChangedTo="0" flow="472.88"/>
        <edge id=":gneJ2_10" sampledSeconds="43.47" traveltime="1.31" overlapTraveltime="1.98" density="21.85" overlapDensity="32.90" laneDensity="21.85" occupancy="10.13" waitingTime="0.00" timeLoss="17.18" speed="6.71" speedRelative="0.84" departed="0" arrived="0" entered="22" left="22" laneChangedFrom="0" laneChangedTo="0" flow="495.00"/>
        <edge id=":gneJ3_0" sampledSeconds="32.09" traveltime="0.86" overlapTraveltime="1.23" density="12.41" overlapDensity="17.91" laneDensity="12.41" occupancy="6.19" waitingTime="0.00" timeLoss="1.76" speed="13.13" speedRelative="0.95" departed="0" arrived="0" entered="26" left="26" laneChangedFrom="0" laneChangedTo="0" flow="585.00"/>
        <edge id=":gneJ5_1" sampledSeconds="42.96" traveltime="1.44" overlapTraveltime="1.95" density="17.64" overlapDensity="23.97" laneDensity="17.64" occupancy="8.22" waitingTime="0.00" timeLoss="17.30" speed="8.30" speedRelative="0.60" departed="0" arrived="0" entered="22" left="22" laneChangedFrom="0" laneChangedTo="0" flow="495.00"/>
        <edge id="-a" sampledSeconds="275.27" traveltime="7.01" overlapTraveltime="7.39" density="17.78" overlapDensity="18.54" laneDensity="17.78" occupancy="8.87" waitingTime="0.00" timeLoss="12.91" speed="13.24" speedRelative="0.95" departed="0" arrived="39" entered="36" left="0" laneChangedFrom="0" laneChangedTo="0" flow="847.28"/>
        <edge id="-b" sampledSeconds="725.68" traveltime="21.84" overlapTraveltime="22.22" density="15.41" overlapDensity="15.70" laneDensity="15.41" occupancy="7.72" waitingTime="0.00" timeLoss="34.80" speed="13.22" speedRelative="0.95" departed="0" arrived="0" entered="29" left="36" laneChangedFrom="0" laneChangedTo="0" flow="733.61"/>
        <edge id="-c" sampledSeconds="196.53" traveltime="6.75" overlapTraveltime="7.14" density="13.05" overlapDensity="13.83" laneDensity="13.05" occupancy="6.55" waitingTime="0.00" timeLoss="10.61" speed="13.14" speedRelative="0.95" departed="0" arrived="0" entered="26" left="29" laneChangedFrom="0" laneChangedTo="0" flow="617.57"/>
        <edge id="-d" sampledSeconds="245.19" traveltime="10.05" overlapTraveltime="10.42" density="15.84" overlapDensity="16.51" laneDensity="15.84" occupancy="8.09" waitingTime="0.00" timeLoss="79.44" speed="9.39" speedRelative="0.68" departed="23" arrived="0" entered="0" left="26" laneChangedFrom="0" laneChangedTo="0" flow="526.69"/>
        <edge id="b" sampledSeconds="2294.36" traveltime="407.67" overlapTraveltime="392.98" density="49.19" overlapDensity="49.65" laneDensity="24.60" occupancy="12.36" waitingTime="1765.00" timeLoss="2160.84" speed="0.75" speedRelative="0.05" departed="0" arrived="0" entered="0" left="21" laneChangedFrom="0" laneChangedTo="0" flow="125.46"/>
        <edge id="g" sampledSeconds="220.56" traveltime="9.31" overlapTraveltime="10.03" density="14.42" overlapDensity="15.52" laneDensity="14.42" occupancy="7.22" waitingTime="0.00" timeLoss="71.99" speed="9.36" speedRelative="0.67" departed="0" arrived="0" entered="22" left="22" laneChangedFrom="0" laneChangedTo="0" flow="495.00"/>
        <edge id="h" sampledSeconds="167.92" traveltime="7.35" overlapTraveltime="7.73" density="10.89" overlapDensity="11.31" laneDensity="10.89" occupancy="5.36" waitingTime="0.00" timeLoss="14.91" speed="12.66" speedRelative="0.91" departed="0" arrived="22" entered="22" left="0" laneChangedFrom="0" laneChangedTo="0" flow="495.00"/>
    </interval>
</meandata>
