<?xml version="1.0" encoding="UTF-8"?>

<!-- generated on 2021-11-23 12:50:09 by Eclipse SUMO sumo Version v1_11_0+0012-279bcfd
This data file and the accompanying materials
are made available under the terms of the Eclipse Public License v2.0
which accompanies this distribution, and is available at
http://www.eclipse.org/legal/epl-v20.html
SPDX-License-Identifier: EPL-2.0
<configuration xmlns:xsi="http://www.w3.org/2001/XMLSchema-instance" xsi:noNamespaceSchemaLocation="http://sumo.dlr.de/xsd/sumoConfiguration.xsd">

    <input>
        <net-file value="net.net.xml"/>
        <route-files value="input_routes.rou.xml"/>
        <additional-files value="input_additional.add.xml"/>
    </input>

    <output>
        <write-license value="true"/>
    </output>

    <processing>
        <default.speeddev value="0"/>
    </processing>

    <routing>
        <weights.separate-turns value="1"/>
    </routing>

    <report>
        <verbose value="true"/>
        <xml-validation value="never"/>
        <xml-validation.routes value="never"/>
        <duration-log.statistics value="true"/>
        <no-step-log value="true"/>
    </report>

</configuration>
-->

<meandata xmlns:xsi="http://www.w3.org/2001/XMLSchema-instance" xsi:noNamespaceSchemaLocation="http://sumo.dlr.de/xsd/meandata_file.xsd">
    <interval begin="0.00" end="600.00" id="ed">
        <edge id=":gneJ1_0" sampledSeconds="208.39" traveltime="0.85" overlapTraveltime="1.22" density="31.01" laneDensity="31.01" occupancy="10.71" waitingTime="0.00" timeLoss="9.96" speed="13.23" speedRelative="0.95" departed="0" arrived="0" entered="171" left="170" laneChangedFrom="0" laneChangedTo="0"/>
        <edge id=":gneJ1_4" sampledSeconds="196.63" traveltime="0.87" overlapTraveltime="1.24" density="28.52" laneDensity="14.26" occupancy="4.97" waitingTime="0.00" timeLoss="9.05" speed="13.25" speedRelative="0.95" departed="0" arrived="0" entered="158" left="158" laneChangedFrom="0" laneChangedTo="0"/>
        <edge id=":gneJ2_1" sampledSeconds="265.54" traveltime="1.11" overlapTraveltime="1.49" density="30.73" laneDensity="30.73" occupancy="11.40" waitingTime="0.00" timeLoss="16.93" speed="13.00" speedRelative="0.94" departed="0" arrived="0" entered="178" left="178" laneChangedFrom="0" laneChangedTo="0"/>
        <edge id=":gneJ2_4" sampledSeconds="128.82" traveltime="1.53" overlapTraveltime="2.26" density="23.78" laneDensity="23.78" occupancy="7.85" waitingTime="0.00" timeLoss="46.13" speed="6.21" speedRelative="0.95" departed="0" arrived="0" entered="57" left="57" laneChangedFrom="0" laneChangedTo="0"/>
        <edge id=":gneJ2_5" sampledSeconds="117.76" traveltime="1.15" overlapTraveltime="1.53" density="13.23" laneDensity="13.23" occupancy="4.94" waitingTime="0.00" timeLoss="7.83" speed="12.97" speedRelative="0.93" departed="0" arrived="0" entered="77" left="77" laneChangedFrom="0" laneChangedTo="0"/>
        <edge id=":gneJ2_6" sampledSeconds="434.54" traveltime="21.21" overlapTraveltime="23.45" density="122.13" laneDensity="122.13" occupancy="57.04" waitingTime="342.00" timeLoss="409.31" speed="0.47" speedRelative="0.06" departed="0" arrived="0" entered="19" left="18" laneChangedFrom="0" laneChangedTo="0"/>
        <edge id=":gneJ2_10" sampledSeconds="57.65" traveltime="2.41" overlapTraveltime="3.20" density="11.63" laneDensity="11.63" occupancy="3.24" waitingTime="0.00" timeLoss="34.73" speed="4.14" speedRelative="0.52" departed="0" arrived="0" entered="18" left="18" laneChangedFrom="0" laneChangedTo="0"/>
        <edge id=":gneJ3_0" sampledSeconds="220.69" traveltime="0.84" overlapTraveltime="1.22" density="32.84" laneDensity="32.84" occupancy="11.36" waitingTime="0.00" timeLoss="9.84" speed="13.27" speedRelative="0.96" departed="0" arrived="0" entered="181" left="181" laneChangedFrom="0" laneChangedTo="0"/>
        <edge id=":gneJ3_4" sampledSeconds="92.60" traveltime="0.84" overlapTraveltime="1.22" density="13.78" laneDensity="13.78" occupancy="4.76" waitingTime="0.00" timeLoss="3.96" speed="13.30" speedRelative="0.96" departed="0" arrived="0" entered="76" left="76" laneChangedFrom="0" laneChangedTo="0"/>
        <edge id=":gneJ5_0" sampledSeconds="123.36" traveltime="1.53" overlapTraveltime="2.27" density="22.77" laneDensity="22.77" occupancy="7.50" waitingTime="0.00" timeLoss="43.89" speed="6.18" speedRelative="0.95" departed="0" arrived="0" entered="55" left="54" laneChangedFrom="0" laneChangedTo="0"/>
        <edge id=":gneJ5_1" sampledSeconds="50.38" traveltime="2.20" overlapTraveltime="2.80" density="7.50" laneDensity="7.50" occupancy="2.37" waitingTime="0.00" timeLoss="29.39" speed="5.79" speedRelative="0.42" departed="0" arrived="0" entered="18" left="18" laneChangedFrom="0" laneChangedTo="0"/>
        <edge id="-a" sampledSeconds="1239.38" traveltime="7.02" overlapTraveltime="7.40" density="22.26" laneDensity="22.26" occupancy="10.62" waitingTime="0.00" timeLoss="59.96" speed="13.22" speedRelative="0.95" departed="0" arrived="168" entered="170" left="0" laneChangedFrom="0" laneChangedTo="0"/>
        <edge id="-b" sampledSeconds="3862.91" traveltime="21.81" overlapTraveltime="22.19" density="22.29" laneDensity="22.29" occupancy="10.96" waitingTime="0.00" timeLoss="181.12" speed="13.24" speedRelative="0.95" departed="0" arrived="0" entered="178" left="171" laneChangedFrom="0" laneChangedTo="0"/>
        <edge id="-c" sampledSeconds="1278.68" traveltime="6.75" overlapTraveltime="7.13" density="24.00" laneDensity="24.00" occupancy="11.36" waitingTime="0.00" timeLoss="68.38" speed="13.15" speedRelative="0.95" departed="0" arrived="0" entered="181" left="178" laneChangedFrom="0" laneChangedTo="0"/>
        <edge id="-d" sampledSeconds="1806.84" traveltime="10.11" overlapTraveltime="10.48" density="32.45" laneDensity="32.45" occupancy="15.92" waitingTime="0.00" timeLoss="593.22" speed="9.33" speedRelative="0.67" departed="184" arrived="0" entered="0" left="181" laneChangedFrom="0" laneChangedTo="0"/>
        <edge id="a" sampledSeconds="1583.10" traveltime="10.13" overlapTraveltime="10.50" density="28.43" laneDensity="28.43" occupancy="13.95" waitingTime="0.00" timeLoss="521.70" speed="9.31" speedRelative="0.67" departed="160" arrived="0" entered="0" left="158" laneChangedFrom="0" laneChangedTo="0"/>
        <edge id="b" sampledSeconds="6307.68" traveltime="39.84" overlapTraveltime="40.58" density="36.40" laneDensity="18.20" occupancy="8.97" waitingTime="1931.00" timeLoss="2983.44" speed="7.24" speedRelative="0.52" departed="0" arrived="0" entered="158" left="153" laneChangedFrom="0" laneChangedTo="0"/>
        <edge id="c" sampledSeconds="539.16" traveltime="6.71" overlapTraveltime="7.08" density="10.12" laneDensity="10.12" occupancy="4.79" waitingTime="0.00" timeLoss="25.23" speed="13.24" speedRelative="0.95" departed="0" arrived="0" entered="77" left="76" laneChangedFrom="0" laneChangedTo="0"/>
        <edge id="d" sampledSeconds="551.82" traveltime="7.00" overlapTraveltime="7.38" density="9.91" laneDensity="9.91" occupancy="4.72" waitingTime="0.00" timeLoss="25.33" speed="13.25" speedRelative="0.95" departed="0" arrived="75" entered="76" left="0" laneChangedFrom="0" laneChangedTo="0"/>
        <edge id="f" sampledSeconds="1364.24" traveltime="23.57" overlapTraveltime="24.41" density="7.79" laneDensity="7.79" occupancy="3.76" waitingTime="0.00" timeLoss="141.68" speed="12.17" speedRelative="0.88" departed="0" arrived="0" entered="57" left="55" laneChangedFrom="0" laneChangedTo="0"/>
        <edge id="g" sampledSeconds="281.05" traveltime="14.32" overlapTraveltime="15.61" density="5.27" laneDensity="5.27" occupancy="2.47" waitingTime="79.00" timeLoss="159.50" speed="6.01" speedRelative="0.43" departed="0" arrived="0" entered="18" left="18" laneChangedFrom="0" laneChangedTo="0"/>
        <edge id="h" sampledSeconds="591.96" traveltime="7.91" overlapTraveltime="8.29" density="10.63" laneDensity="10.63" occupancy="4.99" waitingTime="0.00" timeLoss="89.42" speed="11.79" speedRelative="0.85" departed="0" arrived="72" entered="72" left="0" laneChangedFrom="0" laneChangedTo="0"/>
    </interval>
    <interval begin="600.00" end="1200.00" id="ed">
        <edge id=":gneJ1_0" sampledSeconds="237.32" traveltime="0.85" overlapTraveltime="1.22" density="35.32" laneDensity="35.32" occupancy="12.22" waitingTime="0.00" timeLoss="11.21" speed="13.23" speedRelative="0.95" departed="0" arrived="0" entered="193" left="194" laneChangedFrom="0" laneChangedTo="0"/>
        <edge id=":gneJ1_4" sampledSeconds="52.67" traveltime="0.87" overlapTraveltime="1.25" density="7.64" laneDensity="3.82" occupancy="1.33" waitingTime="0.00" timeLoss="2.81" speed="13.15" speedRelative="0.95" departed="0" arrived="0" entered="42" left="42" laneChangedFrom="0" laneChangedTo="0"/>
        <edge id=":gneJ2_1" sampledSeconds="289.63" traveltime="1.12" overlapTraveltime="1.50" density="33.52" laneDensity="33.52" occupancy="12.43" waitingTime="0.00" timeLoss="19.59" speed="12.95" speedRelative="0.93" departed="0" arrived="0" entered="194" left="193" laneChangedFrom="0" laneChangedTo="0"/>
        <edge id=":gneJ2_4" sampledSeconds="25.15" traveltime="1.52" overlapTraveltime="2.29" density="4.64" laneDensity="4.64" occupancy="1.54" waitingTime="0.00" timeLoss="9.00" speed="6.14" speedRelative="0.94" departed="0" arrived="0" entered="11" left="11" laneChangedFrom="0" laneChangedTo="0"/>
        <edge id=":gneJ2_5" sampledSeconds="35.14" traveltime="1.15" overlapTraveltime="1.53" density="3.95" laneDensity="3.95" occupancy="1.47" waitingTime="0.00" timeLoss="2.31" speed="12.98" speedRelative="0.93" departed="0" arrived="0" entered="23" left="23" laneChangedFrom="0" laneChangedTo="0"/>
        <edge id=":gneJ2_6" sampledSeconds="407.09" traveltime="29.31" overlapTraveltime="30.23" density="114.42" laneDensity="114.42" occupancy="54.23" waitingTime="342.00" timeLoss="388.80" speed="0.36" speedRelative="0.05" departed="0" arrived="0" entered="13" left="14" laneChangedFrom="0" laneChangedTo="0"/>
        <edge id=":gneJ2_10" sampledSeconds="45.41" traveltime="2.46" overlapTraveltime="3.24" density="9.16" laneDensity="9.16" occupancy="2.55" waitingTime="0.00" timeLoss="27.99" speed="4.09" speedRelative="0.51" departed="0" arrived="0" entered="14" left="14" laneChangedFrom="0" laneChangedTo="0"/>
        <edge id=":gneJ3_0" sampledSeconds="236.35" traveltime="0.85" overlapTraveltime="1.22" density="35.17" laneDensity="35.17" occupancy="12.15" waitingTime="0.00" timeLoss="11.01" speed="13.24" speedRelative="0.95" departed="0" arrived="0" entered="193" left="193" laneChangedFrom="0" laneChangedTo="0"/>
        <edge id=":gneJ3_4" sampledSeconds="29.39" traveltime="0.85" overlapTraveltime="1.22" density="4.37" laneDensity="4.37" occupancy="1.51" waitingTime="0.00" timeLoss="1.39" speed="13.23" speedRelative="0.95" departed="0" arrived="0" entered="24" left="24" laneChangedFrom="0" laneChangedTo="0"/>
        <edge id=":gneJ5_0" sampledSeconds="31.15" traveltime="1.51" overlapTraveltime="2.28" density="5.75" laneDensity="5.75" occupancy="1.91" waitingTime="0.00" timeLoss="10.85" speed="6.15" speedRelative="0.94" departed="0" arrived="0" entered="13" left="14" laneChangedFrom="0" laneChangedTo="0"/>
        <edge id=":gneJ5_1" sampledSeconds="29.95" traveltime="1.61" overlapTraveltime="2.14" density="4.46" laneDensity="4.46" occupancy="1.49" waitingTime="0.00" timeLoss="13.62" speed="7.57" speedRelative="0.55" departed="0" arrived="0" entered="14" left="14" laneChangedFrom="0" laneChangedTo="0"/>
        <edge id="-a" sampledSeconds="1416.34" traveltime="7.01" overlapTraveltime="7.39" density="25.44" laneDensity="25.44" occupancy="12.15" waitingTime="0.00" timeLoss="67.48" speed="13.23" speedRelative="0.95" departed="0" arrived="193" entered="194" left="0" laneChangedFrom="0" laneChangedTo="0"/>
        <edge id="-b" sampledSeconds="4297.59" traveltime="21.82" overlapTraveltime="22.20" density="24.80" laneDensity="24.80" occupancy="12.19" waitingTime="0.00" timeLoss="202.45" speed="13.24" speedRelative="0.95" departed="0" arrived="0" entered="193" left="193" laneChangedFrom="0" laneChangedTo="0"/>
        <edge id="-c" sampledSeconds="1384.41" traveltime="6.76" overlapTraveltime="7.15" density="25.98" laneDensity="25.98" occupancy="12.29" waitingTime="0.00" timeLoss="76.68" speed="13.12" speedRelative="0.94" departed="0" arrived="0" entered="193" left="194" laneChangedFrom="0" laneChangedTo="0"/>
        <edge id="-d" sampledSeconds="1923.64" traveltime="10.11" overlapTraveltime="10.48" density="34.55" laneDensity="34.55" occupancy="16.95" waitingTime="0.00" timeLoss="631.24" speed="9.33" speedRelative="0.67" departed="194" arrived="0" entered="0" left="193" laneChangedFrom="0" laneChangedTo="0"/>
        <edge id="a" sampledSeconds="401.59" traveltime="9.98" overlapTraveltime="10.34" density="7.21" laneDensity="7.21" occupancy="3.53" waitingTime="0.00" timeLoss="128.22" speed="9.46" speedRelative="0.68" departed="40" arrived="0" entered="0" left="42" laneChangedFrom="0" laneChangedTo="0"/>
        <edge id="b" sampledSeconds="2383.30" traveltime="52.60" overlapTraveltime="53.49" density="13.75" laneDensity="6.88" occupancy="3.39" waitingTime="1047.00" timeLoss="1431.32" speed="5.49" speedRelative="0.40" departed="0" arrived="0" entered="42" left="47" laneChangedFrom="0" laneChangedTo="0"/>
        <edge id="c" sampledSeconds="169.61" traveltime="6.72" overlapTraveltime="7.10" density="3.18" laneDensity="3.18" occupancy="1.51" waitingTime="0.00" timeLoss="8.24" speed="13.22" speedRelative="0.95" departed="0" arrived="0" entered="23" left="24" laneChangedFrom="0" laneChangedTo="0"/>
        <edge id="d" sampledSeconds="180.95" traveltime="7.00" overlapTraveltime="7.38" density="3.25" laneDensity="3.25" occupancy="1.55" waitingTime="0.00" timeLoss="8.26" speed="13.26" speedRelative="0.95" departed="0" arrived="25" entered="24" left="0" laneChangedFrom="0" laneChangedTo="0"/>
        <edge id="f" sampledSeconds="296.99" traveltime="23.68" overlapTraveltime="24.53" density="1.70" laneDensity="1.70" occupancy="0.82" waitingTime="0.00" timeLoss="31.35" speed="12.11" speedRelative="0.87" departed="0" arrived="0" entered="11" left="13" laneChangedFrom="0" laneChangedTo="0"/>
        <edge id="g" sampledSeconds="160.23" traveltime="10.59" overlapTraveltime="11.45" density="3.01" laneDensity="3.01" occupancy="1.40" waitingTime="19.00" timeLoss="65.69" speed="8.20" speedRelative="0.59" departed="0" arrived="0" entered="14" left="14" laneChangedFrom="0" laneChangedTo="0"/>
        <edge id="h" sampledSeconds="226.12" traveltime="7.75" overlapTraveltime="8.13" density="4.06" laneDensity="4.06" occupancy="1.91" waitingTime="0.00" timeLoss="30.20" speed="12.03" speedRelative="0.87" departed="0" arrived="28" entered="28" left="0" laneChangedFrom="0" laneChangedTo="0"/>
    </interval>
    <interval begin="1200.00" end="1315.00" id="ed">
        <edge id=":gneJ1_0" sampledSeconds="44.15" traveltime="0.85" overlapTraveltime="1.23" density="34.28" laneDensity="34.28" occupancy="11.85" waitingTime="0.00" timeLoss="2.16" speed="13.21" speedRelative="0.95" departed="0" arrived="0" entered="36" left="36" laneChangedFrom="0" laneChangedTo="0"/>
        <edge id=":gneJ2_1" sampledSeconds="42.30" traveltime="1.10" overlapTraveltime="1.48" density="25.54" laneDensity="25.54" occupancy="9.50" waitingTime="0.00" timeLoss="2.27" speed="13.14" speedRelative="0.95" departed="0" arrived="0" entered="28" left="29" laneChangedFrom="0" laneChangedTo="0"/>
        <edge id=":gneJ3_0" sampledSeconds="32.09" traveltime="0.85" overlapTraveltime="1.23" density="24.91" laneDensity="24.91" occupancy="8.61" waitingTime="0.00" timeLoss="1.76" speed="13.13" speedRelative="0.95" departed="0" arrived="0" entered="26" left="26" laneChangedFrom="0" laneChangedTo="0"/>
        <edge id="-a" sampledSeconds="270.80" traveltime="7.01" overlapTraveltime="7.39" density="25.38" laneDensity="25.38" occupancy="12.17" waitingTime="0.00" timeLoss="12.72" speed="13.24" speedRelative="0.95" departed="0" arrived="39" entered="36" left="0" laneChangedFrom="0" laneChangedTo="0"/>
        <edge id="-b" sampledSeconds="718.19" traveltime="21.84" overlapTraveltime="22.21" density="21.62" laneDensity="21.62" occupancy="10.63" waitingTime="0.00" timeLoss="34.35" speed="13.23" speedRelative="0.95" departed="0" arrived="0" entered="29" left="36" laneChangedFrom="0" laneChangedTo="0"/>
        <edge id="-c" sampledSeconds="192.13" traveltime="6.70" overlapTraveltime="7.08" density="18.81" laneDensity="18.81" occupancy="8.90" waitingTime="0.00" timeLoss="8.94" speed="13.24" speedRelative="0.95" departed="0" arrived="0" entered="26" left="28" laneChangedFrom="0" laneChangedTo="0"/>
        <edge id="-d" sampledSeconds="242.17" traveltime="10.06" overlapTraveltime="10.43" density="22.69" laneDensity="22.69" occupancy="11.11" waitingTime="0.00" timeLoss="78.65" speed="9.38" speedRelative="0.68" departed="22" arrived="0" entered="0" left="26" laneChangedFrom="0" laneChangedTo="0"/>
    </interval>
</meandata>
