<?xml version="1.0" encoding="UTF-8"?>

<!-- generated on 2025-09-10 10:52:08 by Eclipse SUMO sumo Version v1_24_0+0716-53414c7bcbf
<sumoConfiguration xmlns:xsi="http://www.w3.org/2001/XMLSchema-instance" xsi:noNamespaceSchemaLocation="http://sumo.dlr.de/xsd/sumoConfiguration.xsd">

    <input>
        <net-file value="input_net.net.xml"/>
        <route-files value="input_routes.rou.xml"/>
    </input>

    <output>
        <vehroute-output value="vehroutes.xml"/>
        <vehroute-output.sorted value="true"/>
        <vehroute-output.write-unfinished value="true"/>
        <save-state.times value="50"/>
        <save-state.files value="state.xml"/>
    </output>

    <time>
        <end value="100"/>
    </time>

    <report>
        <duration-log.disable value="true"/>
        <no-step-log value="true"/>
    </report>

</sumoConfiguration>
-->

<routes xmlns:xsi="http://www.w3.org/2001/XMLSchema-instance" xsi:noNamespaceSchemaLocation="http://sumo.dlr.de/xsd/routes_file.xsd">
    <vehicle id="0" depart="0.00" departPos="100.00" departSpeed="10.00" speedFactor="1.0600">
        <route edges="0/1to1/1 1/1to2/1 2/1to3/1 3/1to4/1"/>
    </vehicle>

    <vehicle id="1" depart="5.00" departPos="100.00" departSpeed="10.00" speedFactor="1.0600">
        <route edges="0/1to1/1 1/1to2/1"/>
    </vehicle>

</routes>
