<?xml version="1.0" encoding="UTF-8"?>

<!-- generated on Thu Jan 19 16:36:34 2017 by SUMO Version dev-SVN-r22642
<?xml version="1.0" encoding="UTF-8"?>

<configuration xmlns:xsi="http://www.w3.org/2001/XMLSchema-instance" xsi:noNamespaceSchemaLocation="http://sumo.dlr.de/xsd/sumoConfiguration.xsd">

    <input>
        <net-file value="net.net.xml"/>
        <route-files value="input_routes.rou.xml"/>
        <load-state value="input_state.xml"/>
        <load-state.remove-vehicles value="v0"/>
    </input>

    <output>
        <vehroute-output value="vehroutes.xml"/>
    </output>

    <time>
        <begin value="10"/>
    </time>

    <report>
        <verbose value="true"/>
        <xml-validation value="never"/>
        <no-step-log value="true"/>
    </report>

</configuration>
-->

<routes xmlns:xsi="http://www.w3.org/2001/XMLSchema-instance" xsi:noNamespaceSchemaLocation="http://sumo.dlr.de/xsd/routes_file.xsd">
    <vehicle id="v1" type="type2" depart="4.00" arrival="30.00">
        <route edges="beg middle end"/>
    </vehicle>

</routes>
