<?xml version="1.0" encoding="UTF-8"?>

<!-- generated on 2022-12-11 20:57:26 by Eclipse SUMO sumo Version v1_15_0+0944-c751163
This data file and the accompanying materials
are made available under the terms of the Eclipse Public License v2.0
which accompanies this distribution, and is available at
http://www.eclipse.org/legal/epl-v20.html
This file may also be made available under the following Secondary
Licenses when the conditions for such availability set forth in the Eclipse
Public License 2.0 are satisfied: GNU General Public License, version 2
or later which is available at
https://www.gnu.org/licenses/old-licenses/gpl-2.0-standalone.html
SPDX-License-Identifier: EPL-2.0 OR GPL-2.0-or-later
<configuration xmlns:xsi="http://www.w3.org/2001/XMLSchema-instance" xsi:noNamespaceSchemaLocation="http://sumo.dlr.de/xsd/sumoConfiguration.xsd">

    <input>
        <net-file value="net2.net.xml"/>
        <route-files value="input_routes.rou.xml"/>
    </input>

    <output>
        <write-license value="true"/>
        <fcd-output value="fcd.xml"/>
    </output>

    <processing>
        <lateral-resolution value="0.66"/>
        <default.speeddev value="0"/>
        <pedestrian.model value="striping"/>
        <pedestrian.striping.dawdling value="0"/>
        <pedestrian.striping.legacy-departposlat value="true"/>
    </processing>

    <report>
        <xml-validation value="never"/>
        <no-step-log value="true"/>
    </report>

</configuration>
-->

<fcd-export xmlns:xsi="http://www.w3.org/2001/XMLSchema-instance" xsi:noNamespaceSchemaLocation="http://sumo.dlr.de/xsd/fcd_file.xsd">
    <timestep time="0.00">
        <vehicle id="v0" x="100.00" y="70.50" angle="0.00" type="bike" speed="11.11" pos="70.50" lane="SC_0" slope="0.00"/>
    </timestep>
    <timestep time="1.00">
        <vehicle id="v0" x="100.67" y="81.61" angle="3.47" type="bike" speed="11.11" pos="81.61" lane="SC_0" slope="0.00"/>
    </timestep>
    <timestep time="2.00">
        <vehicle id="v0" x="100.67" y="92.72" angle="0.00" type="bike" speed="11.11" pos="92.72" lane="SC_0" slope="0.00"/>
        <person id="p0" x="100.32" y="101.50" angle="0.00" speed="0.00" pos="0.00" edge="CN" slope="0.00"/>
    </timestep>
    <timestep time="3.00">
        <vehicle id="v0" x="101.67" y="98.87" angle="9.24" type="bike" speed="6.15" pos="0.37" lane=":C_0_0" slope="0.00"/>
        <person id="p0" x="100.24" y="102.89" angle="356.70" speed="1.39" pos="1.39" edge="CN" slope="0.00"/>
    </timestep>
    <timestep time="4.00">
        <vehicle id="v0" x="101.67" y="106.22" angle="0.00" type="bike" speed="7.35" pos="4.72" lane="CN_0" slope="0.00"/>
        <person id="p0" x="100.24" y="104.28" angle="0.00" speed="1.39" pos="2.78" edge="CN" slope="0.00"/>
    </timestep>
    <timestep time="5.00">
        <vehicle id="v0" x="101.67" y="114.77" angle="0.00" type="bike" speed="8.55" pos="13.27" lane="CN_0" slope="0.00"/>
        <person id="p0" x="100.24" y="105.67" angle="0.00" speed="1.39" pos="4.17" edge="CN" slope="0.00"/>
    </timestep>
    <timestep time="6.00">
        <vehicle id="v0" x="101.67" y="124.52" angle="0.00" type="bike" speed="9.75" pos="23.02" lane="CN_0" slope="0.00"/>
        <person id="p0" x="100.24" y="107.06" angle="0.00" speed="1.39" pos="5.56" edge="CN" slope="0.00"/>
    </timestep>
    <timestep time="7.00">
        <vehicle id="v0" x="101.67" y="135.47" angle="0.00" type="bike" speed="10.95" pos="33.97" lane="CN_0" slope="0.00"/>
        <person id="p0" x="100.24" y="108.44" angle="0.00" speed="1.39" pos="6.94" edge="CN" slope="0.00"/>
    </timestep>
    <timestep time="8.00">
        <vehicle id="v0" x="101.67" y="146.58" angle="0.00" type="bike" speed="11.11" pos="45.08" lane="CN_0" slope="0.00"/>
        <person id="p0" x="100.24" y="109.83" angle="0.00" speed="1.39" pos="8.33" edge="CN" slope="0.00"/>
    </timestep>
    <timestep time="9.00">
        <vehicle id="v0" x="101.67" y="157.70" angle="0.00" type="bike" speed="11.11" pos="56.20" lane="CN_0" slope="0.00"/>
        <person id="p0" x="100.24" y="111.22" angle="0.00" speed="1.39" pos="9.72" edge="CN" slope="0.00"/>
    </timestep>
    <timestep time="10.00">
        <vehicle id="v0" x="101.67" y="168.81" angle="0.00" type="bike" speed="11.11" pos="67.31" lane="CN_0" slope="0.00"/>
        <person id="p0" x="100.24" y="112.61" angle="0.00" speed="1.39" pos="11.11" edge="CN" slope="0.00"/>
    </timestep>
    <timestep time="11.00">
        <vehicle id="v0" x="101.67" y="179.92" angle="0.00" type="bike" speed="11.11" pos="78.42" lane="CN_0" slope="0.00"/>
        <person id="p0" x="100.24" y="114.00" angle="0.00" speed="1.39" pos="12.50" edge="CN" slope="0.00"/>
    </timestep>
    <timestep time="12.00">
        <vehicle id="v0" x="101.67" y="191.03" angle="0.00" type="bike" speed="11.11" pos="89.53" lane="CN_0" slope="0.00"/>
        <person id="p0" x="100.24" y="115.39" angle="0.00" speed="1.39" pos="13.89" edge="CN" slope="0.00"/>
    </timestep>
    <timestep time="13.00">
        <person id="p0" x="100.24" y="116.78" angle="0.00" speed="1.39" pos="15.28" edge="CN" slope="0.00"/>
    </timestep>
    <timestep time="14.00">
        <person id="p0" x="100.24" y="118.17" angle="0.00" speed="1.39" pos="16.67" edge="CN" slope="0.00"/>
    </timestep>
    <timestep time="15.00">
        <person id="p0" x="100.24" y="119.56" angle="0.00" speed="1.39" pos="18.06" edge="CN" slope="0.00"/>
    </timestep>
    <timestep time="16.00">
        <person id="p0" x="100.24" y="120.94" angle="0.00" speed="1.39" pos="19.44" edge="CN" slope="0.00"/>
    </timestep>
    <timestep time="17.00">
        <person id="p0" x="100.24" y="122.33" angle="0.00" speed="1.39" pos="20.83" edge="CN" slope="0.00"/>
    </timestep>
    <timestep time="18.00">
        <person id="p0" x="100.24" y="123.72" angle="0.00" speed="1.39" pos="22.22" edge="CN" slope="0.00"/>
    </timestep>
    <timestep time="19.00">
        <person id="p0" x="100.24" y="125.11" angle="0.00" speed="1.39" pos="23.61" edge="CN" slope="0.00"/>
    </timestep>
    <timestep time="20.00">
        <person id="p0" x="100.24" y="126.50" angle="0.00" speed="1.39" pos="25.00" edge="CN" slope="0.00"/>
    </timestep>
    <timestep time="21.00">
        <person id="p0" x="100.24" y="127.89" angle="0.00" speed="1.39" pos="26.39" edge="CN" slope="0.00"/>
    </timestep>
    <timestep time="22.00">
        <person id="p0" x="100.24" y="129.28" angle="0.00" speed="1.39" pos="27.78" edge="CN" slope="0.00"/>
    </timestep>
    <timestep time="23.00">
        <person id="p0" x="100.24" y="130.67" angle="0.00" speed="1.39" pos="29.17" edge="CN" slope="0.00"/>
    </timestep>
    <timestep time="24.00">
        <person id="p0" x="100.24" y="132.06" angle="0.00" speed="1.39" pos="30.56" edge="CN" slope="0.00"/>
    </timestep>
    <timestep time="25.00">
        <person id="p0" x="100.24" y="133.44" angle="0.00" speed="1.39" pos="31.94" edge="CN" slope="0.00"/>
    </timestep>
    <timestep time="26.00">
        <person id="p0" x="100.24" y="134.83" angle="0.00" speed="1.39" pos="33.33" edge="CN" slope="0.00"/>
    </timestep>
    <timestep time="27.00">
        <person id="p0" x="100.24" y="136.22" angle="0.00" speed="1.39" pos="34.72" edge="CN" slope="0.00"/>
    </timestep>
    <timestep time="28.00">
        <person id="p0" x="100.24" y="137.61" angle="0.00" speed="1.39" pos="36.11" edge="CN" slope="0.00"/>
    </timestep>
    <timestep time="29.00">
        <person id="p0" x="100.24" y="139.00" angle="0.00" speed="1.39" pos="37.50" edge="CN" slope="0.00"/>
    </timestep>
    <timestep time="30.00">
        <person id="p0" x="100.24" y="140.39" angle="0.00" speed="1.39" pos="38.89" edge="CN" slope="0.00"/>
    </timestep>
    <timestep time="31.00">
        <person id="p0" x="100.24" y="141.78" angle="0.00" speed="1.39" pos="40.28" edge="CN" slope="0.00"/>
    </timestep>
    <timestep time="32.00">
        <person id="p0" x="100.24" y="143.17" angle="0.00" speed="1.39" pos="41.67" edge="CN" slope="0.00"/>
    </timestep>
    <timestep time="33.00">
        <person id="p0" x="100.24" y="144.56" angle="0.00" speed="1.39" pos="43.06" edge="CN" slope="0.00"/>
    </timestep>
    <timestep time="34.00">
        <person id="p0" x="100.24" y="145.94" angle="0.00" speed="1.39" pos="44.44" edge="CN" slope="0.00"/>
    </timestep>
    <timestep time="35.00">
        <person id="p0" x="100.24" y="147.33" angle="0.00" speed="1.39" pos="45.83" edge="CN" slope="0.00"/>
    </timestep>
    <timestep time="36.00">
        <person id="p0" x="100.24" y="148.72" angle="0.00" speed="1.39" pos="47.22" edge="CN" slope="0.00"/>
    </timestep>
    <timestep time="37.00">
        <person id="p0" x="100.24" y="150.11" angle="0.00" speed="1.39" pos="48.61" edge="CN" slope="0.00"/>
    </timestep>
    <timestep time="38.00">
        <person id="p0" x="100.24" y="151.50" angle="0.00" speed="1.39" pos="50.00" edge="CN" slope="0.00"/>
    </timestep>
    <timestep time="39.00">
        <person id="p0" x="100.24" y="152.89" angle="0.00" speed="1.39" pos="51.39" edge="CN" slope="0.00"/>
    </timestep>
    <timestep time="40.00">
        <person id="p0" x="100.24" y="154.28" angle="0.00" speed="1.39" pos="52.78" edge="CN" slope="0.00"/>
    </timestep>
    <timestep time="41.00">
        <person id="p0" x="100.24" y="155.67" angle="0.00" speed="1.39" pos="54.17" edge="CN" slope="0.00"/>
    </timestep>
    <timestep time="42.00">
        <person id="p0" x="100.24" y="157.06" angle="0.00" speed="1.39" pos="55.56" edge="CN" slope="0.00"/>
    </timestep>
    <timestep time="43.00">
        <person id="p0" x="100.24" y="158.44" angle="0.00" speed="1.39" pos="56.94" edge="CN" slope="0.00"/>
    </timestep>
    <timestep time="44.00">
        <person id="p0" x="100.24" y="159.83" angle="0.00" speed="1.39" pos="58.33" edge="CN" slope="0.00"/>
    </timestep>
    <timestep time="45.00">
        <person id="p0" x="100.24" y="161.22" angle="0.00" speed="1.39" pos="59.72" edge="CN" slope="0.00"/>
    </timestep>
    <timestep time="46.00">
        <person id="p0" x="100.24" y="162.61" angle="0.00" speed="1.39" pos="61.11" edge="CN" slope="0.00"/>
    </timestep>
    <timestep time="47.00">
        <person id="p0" x="100.24" y="164.00" angle="0.00" speed="1.39" pos="62.50" edge="CN" slope="0.00"/>
    </timestep>
    <timestep time="48.00">
        <person id="p0" x="100.24" y="165.39" angle="0.00" speed="1.39" pos="63.89" edge="CN" slope="0.00"/>
    </timestep>
    <timestep time="49.00">
        <person id="p0" x="100.24" y="166.78" angle="0.00" speed="1.39" pos="65.28" edge="CN" slope="0.00"/>
    </timestep>
    <timestep time="50.00">
        <person id="p0" x="100.24" y="168.17" angle="0.00" speed="1.39" pos="66.67" edge="CN" slope="0.00"/>
    </timestep>
    <timestep time="51.00">
        <person id="p0" x="100.24" y="169.56" angle="0.00" speed="1.39" pos="68.06" edge="CN" slope="0.00"/>
    </timestep>
    <timestep time="52.00">
        <person id="p0" x="100.24" y="170.94" angle="0.00" speed="1.39" pos="69.44" edge="CN" slope="0.00"/>
    </timestep>
    <timestep time="53.00">
        <person id="p0" x="100.24" y="172.33" angle="0.00" speed="1.39" pos="70.83" edge="CN" slope="0.00"/>
    </timestep>
    <timestep time="54.00">
        <person id="p0" x="100.24" y="173.72" angle="0.00" speed="1.39" pos="72.22" edge="CN" slope="0.00"/>
    </timestep>
    <timestep time="55.00">
        <person id="p0" x="100.24" y="175.11" angle="0.00" speed="1.39" pos="73.61" edge="CN" slope="0.00"/>
    </timestep>
    <timestep time="56.00">
        <person id="p0" x="100.24" y="176.50" angle="0.00" speed="1.39" pos="75.00" edge="CN" slope="0.00"/>
    </timestep>
    <timestep time="57.00">
        <person id="p0" x="100.24" y="177.89" angle="0.00" speed="1.39" pos="76.39" edge="CN" slope="0.00"/>
    </timestep>
    <timestep time="58.00">
        <person id="p0" x="100.24" y="179.28" angle="0.00" speed="1.39" pos="77.78" edge="CN" slope="0.00"/>
    </timestep>
    <timestep time="59.00">
        <person id="p0" x="100.24" y="180.67" angle="0.00" speed="1.39" pos="79.17" edge="CN" slope="0.00"/>
    </timestep>
    <timestep time="60.00">
        <person id="p0" x="100.24" y="182.06" angle="0.00" speed="1.39" pos="80.56" edge="CN" slope="0.00"/>
    </timestep>
    <timestep time="61.00">
        <person id="p0" x="100.24" y="183.44" angle="0.00" speed="1.39" pos="81.94" edge="CN" slope="0.00"/>
    </timestep>
    <timestep time="62.00">
        <person id="p0" x="100.24" y="184.83" angle="0.00" speed="1.39" pos="83.33" edge="CN" slope="0.00"/>
    </timestep>
    <timestep time="63.00">
        <person id="p0" x="100.24" y="186.22" angle="0.00" speed="1.39" pos="84.72" edge="CN" slope="0.00"/>
    </timestep>
    <timestep time="64.00">
        <person id="p0" x="100.24" y="187.61" angle="0.00" speed="1.39" pos="86.11" edge="CN" slope="0.00"/>
    </timestep>
    <timestep time="65.00">
        <person id="p0" x="100.24" y="189.00" angle="0.00" speed="1.39" pos="87.50" edge="CN" slope="0.00"/>
    </timestep>
    <timestep time="66.00">
        <person id="p0" x="100.24" y="190.39" angle="0.00" speed="1.39" pos="88.89" edge="CN" slope="0.00"/>
    </timestep>
    <timestep time="67.00">
        <person id="p0" x="100.24" y="191.78" angle="0.00" speed="1.39" pos="90.28" edge="CN" slope="0.00"/>
    </timestep>
    <timestep time="68.00">
        <person id="p0" x="100.24" y="193.17" angle="0.00" speed="1.39" pos="91.67" edge="CN" slope="0.00"/>
    </timestep>
    <timestep time="69.00">
        <person id="p0" x="100.24" y="194.56" angle="0.00" speed="1.39" pos="93.06" edge="CN" slope="0.00"/>
    </timestep>
    <timestep time="70.00">
        <person id="p0" x="100.24" y="195.94" angle="0.00" speed="1.39" pos="94.44" edge="CN" slope="0.00"/>
    </timestep>
    <timestep time="71.00">
        <person id="p0" x="100.24" y="197.33" angle="0.00" speed="1.39" pos="95.83" edge="CN" slope="0.00"/>
    </timestep>
    <timestep time="72.00">
        <person id="p0" x="100.24" y="198.72" angle="0.00" speed="1.39" pos="97.22" edge="CN" slope="0.00"/>
    </timestep>
    <timestep time="73.00"/>
</fcd-export>
