<?xml version="1.0" encoding="UTF-8"?>

<!-- generated on Wed Sep  4 15:30:39 2013 by SUMO sumo Version dev-SVN-r14576
<?xml version="1.0" encoding="UTF-8"?>

<configuration xmlns:xsi="http://www.w3.org/2001/XMLSchema-instance" xsi:noNamespaceSchemaLocation="http://sumo-sim.org/xsd/sumoConfiguration.xsd">

    <input>
        <net-file value="net.net.xml"/>
        <route-files value="input_routes.rou.xml"/>
        <additional-files value="input_additional.add.xml"/>
    </input>

    <time>
        <begin value="0"/>
        <end value="1000"/>
    </time>

    <report>
        <no-duration-log value="true"/>
        <no-step-log value="true"/>
    </report>

</configuration>
-->

<meandata xmlns:xsi="http://www.w3.org/2001/XMLSchema-instance" xsi:noNamespaceSchemaLocation="http://sumo-sim.org/xsd/meandata_file.xsd">
    <interval begin="0.00" end="60.00" id="dump_60">
        <edge id="1fi" sampledSeconds="0.00" departed="0" arrived="0" entered="0" left="0" laneChangedFrom="0" laneChangedTo="0"/>
        <edge id="1o" sampledSeconds="0.00" departed="0" arrived="0" entered="0" left="0" laneChangedFrom="0" laneChangedTo="0"/>
        <edge id="1si" sampledSeconds="0.00" departed="0" arrived="0" entered="0" left="0" laneChangedFrom="0" laneChangedTo="0"/>
        <edge id="2fi" sampledSeconds="0.00" departed="0" arrived="0" entered="0" left="0" laneChangedFrom="0" laneChangedTo="0"/>
        <edge id="2o" sampledSeconds="0.00" departed="0" arrived="0" entered="0" left="0" laneChangedFrom="0" laneChangedTo="0"/>
        <edge id="2si" sampledSeconds="0.00" departed="0" arrived="0" entered="0" left="0" laneChangedFrom="0" laneChangedTo="0"/>
        <edge id="3fi" sampledSeconds="0.00" departed="0" arrived="0" entered="0" left="0" laneChangedFrom="0" laneChangedTo="0"/>
        <edge id="3o" sampledSeconds="0.00" departed="0" arrived="0" entered="0" left="0" laneChangedFrom="0" laneChangedTo="0"/>
        <edge id="3si" sampledSeconds="0.00" departed="0" arrived="0" entered="0" left="0" laneChangedFrom="0" laneChangedTo="0"/>
        <edge id="4fi" sampledSeconds="0.00" departed="0" arrived="0" entered="0" left="0" laneChangedFrom="0" laneChangedTo="0"/>
        <edge id="4o" sampledSeconds="0.00" departed="0" arrived="0" entered="0" left="0" laneChangedFrom="0" laneChangedTo="0"/>
        <edge id="4si" sampledSeconds="0.00" departed="0" arrived="0" entered="0" left="0" laneChangedFrom="0" laneChangedTo="0"/>
    </interval>
    <interval begin="60.00" end="120.00" id="dump_60">
        <edge id="1fi" sampledSeconds="28.00" traveltime="39.66" density="1.88" occupancy="0.56" waitingTime="0.00" speed="6.27" departed="2" arrived="0" entered="0" left="0" laneChangedFrom="0" laneChangedTo="0"/>
        <edge id="1o" sampledSeconds="0.00" departed="0" arrived="0" entered="0" left="0" laneChangedFrom="0" laneChangedTo="0"/>
        <edge id="1si" sampledSeconds="0.00" departed="0" arrived="0" entered="0" left="0" laneChangedFrom="0" laneChangedTo="0"/>
        <edge id="2fi" sampledSeconds="28.00" traveltime="39.66" density="1.88" occupancy="0.56" waitingTime="0.00" speed="6.27" departed="2" arrived="0" entered="0" left="0" laneChangedFrom="0" laneChangedTo="0"/>
        <edge id="2o" sampledSeconds="0.00" departed="0" arrived="0" entered="0" left="0" laneChangedFrom="0" laneChangedTo="0"/>
        <edge id="2si" sampledSeconds="0.00" departed="0" arrived="0" entered="0" left="0" laneChangedFrom="0" laneChangedTo="0"/>
        <edge id="3fi" sampledSeconds="48.00" traveltime="42.23" density="3.22" occupancy="0.97" waitingTime="0.00" speed="5.89" departed="4" arrived="0" entered="0" left="0" laneChangedFrom="0" laneChangedTo="0"/>
        <edge id="3o" sampledSeconds="0.00" departed="0" arrived="0" entered="0" left="0" laneChangedFrom="0" laneChangedTo="0"/>
        <edge id="3si" sampledSeconds="0.00" departed="0" arrived="0" entered="0" left="0" laneChangedFrom="0" laneChangedTo="0"/>
        <edge id="4fi" sampledSeconds="0.00" departed="0" arrived="0" entered="0" left="0" laneChangedFrom="0" laneChangedTo="0"/>
        <edge id="4o" sampledSeconds="0.00" departed="0" arrived="0" entered="0" left="0" laneChangedFrom="0" laneChangedTo="0"/>
        <edge id="4si" sampledSeconds="0.00" departed="0" arrived="0" entered="0" left="0" laneChangedFrom="0" laneChangedTo="0"/>
    </interval>
    <interval begin="120.00" end="180.00" id="dump_60">
        <edge id="1fi" sampledSeconds="172.83" traveltime="28.82" density="11.59" occupancy="3.48" waitingTime="0.00" speed="8.62" departed="6" arrived="0" entered="0" left="6" laneChangedFrom="0" laneChangedTo="0"/>
        <edge id="1o" sampledSeconds="51.67" traveltime="43.98" density="1.76" occupancy="0.53" waitingTime="0.00" speed="11.11" departed="0" arrived="0" entered="2" left="0" laneChangedFrom="0" laneChangedTo="0"/>
        <edge id="1si" sampledSeconds="89.07" traveltime="19.28" density="6.26" occupancy="0.63" waitingTime="1.00" speed="12.30" departed="0" arrived="0" entered="6" left="3" laneChangedFrom="0" laneChangedTo="0"/>
        <edge id="2fi" sampledSeconds="172.83" traveltime="28.82" density="11.59" occupancy="3.48" waitingTime="0.00" speed="8.62" departed="6" arrived="0" entered="0" left="6" laneChangedFrom="0" laneChangedTo="0"/>
        <edge id="2o" sampledSeconds="0.00" departed="0" arrived="0" entered="0" left="0" laneChangedFrom="0" laneChangedTo="0"/>
        <edge id="2si" sampledSeconds="95.48" traveltime="20.92" density="6.71" occupancy="0.67" waitingTime="10.00" speed="11.34" departed="0" arrived="0" entered="6" left="2" laneChangedFrom="0" laneChangedTo="0"/>
        <edge id="3fi" sampledSeconds="341.86" traveltime="28.91" density="22.93" occupancy="6.88" waitingTime="0.00" speed="8.60" departed="12" arrived="0" entered="0" left="11" laneChangedFrom="0" laneChangedTo="0"/>
        <edge id="3o" sampledSeconds="0.00" departed="0" arrived="0" entered="0" left="0" laneChangedFrom="0" laneChangedTo="0"/>
        <edge id="3si" sampledSeconds="279.44" traveltime="32.69" density="19.64" occupancy="1.96" waitingTime="109.00" speed="7.25" departed="0" arrived="0" entered="10" left="0" laneChangedFrom="0" laneChangedTo="0"/>
        <edge id="4fi" sampledSeconds="0.00" departed="0" arrived="0" entered="0" left="0" laneChangedFrom="0" laneChangedTo="0"/>
        <edge id="4o" sampledSeconds="54.82" traveltime="45.03" density="1.87" occupancy="0.56" waitingTime="0.00" speed="10.85" departed="0" arrived="0" entered="3" left="0" laneChangedFrom="0" laneChangedTo="0"/>
        <edge id="4si" sampledSeconds="0.00" departed="0" arrived="0" entered="0" left="0" laneChangedFrom="0" laneChangedTo="0"/>
    </interval>
    <interval begin="180.00" end="240.00" id="dump_60">
        <edge id="1fi" sampledSeconds="226.31" traveltime="28.21" density="15.18" occupancy="4.55" waitingTime="0.00" speed="8.81" departed="6" arrived="0" entered="2" left="8" laneChangedFrom="0" laneChangedTo="0"/>
        <edge id="1o" sampledSeconds="56.05" traveltime="48.55" density="1.91" occupancy="0.57" waitingTime="0.00" speed="10.06" departed="0" arrived="0" entered="4" left="2" laneChangedFrom="0" laneChangedTo="0"/>
        <edge id="1si" sampledSeconds="345.09" traveltime="47.87" density="24.25" occupancy="2.43" waitingTime="170.00" speed="4.95" departed="0" arrived="0" entered="8" left="3" laneChangedFrom="0" laneChangedTo="0"/>
        <edge id="2fi" sampledSeconds="184.32" traveltime="27.23" density="12.36" occupancy="3.71" waitingTime="0.00" speed="9.13" departed="5" arrived="0" entered="5" left="6" laneChangedFrom="0" laneChangedTo="0"/>
        <edge id="2o" sampledSeconds="302.72" traveltime="45.23" density="10.33" occupancy="3.10" waitingTime="0.00" speed="10.80" departed="0" arrived="0" entered="7" left="5" laneChangedFrom="0" laneChangedTo="0"/>
        <edge id="2si" sampledSeconds="356.45" traveltime="59.76" density="25.05" occupancy="2.51" waitingTime="192.00" speed="3.97" departed="0" arrived="0" entered="6" left="6" laneChangedFrom="0" laneChangedTo="0"/>
        <edge id="3fi" sampledSeconds="345.67" traveltime="28.82" density="23.18" occupancy="6.96" waitingTime="0.00" speed="8.62" departed="12" arrived="0" entered="0" left="12" laneChangedFrom="0" laneChangedTo="0"/>
        <edge id="3o" sampledSeconds="0.00" departed="0" arrived="0" entered="0" left="0" laneChangedFrom="0" laneChangedTo="0"/>
        <edge id="3si" sampledSeconds="336.04" traveltime="27.30" density="23.62" occupancy="2.36" waitingTime="61.00" speed="8.69" departed="0" arrived="0" entered="12" left="14" laneChangedFrom="0" laneChangedTo="0"/>
        <edge id="4fi" sampledSeconds="83.70" traveltime="22.36" density="5.61" occupancy="1.68" waitingTime="0.00" speed="11.12" departed="0" arrived="0" entered="7" left="3" laneChangedFrom="0" laneChangedTo="0"/>
        <edge id="4o" sampledSeconds="368.18" traveltime="44.50" density="12.56" occupancy="3.77" waitingTime="0.00" speed="10.98" departed="0" arrived="0" entered="7" left="7" laneChangedFrom="0" laneChangedTo="0"/>
        <edge id="4si" sampledSeconds="32.42" traveltime="19.63" density="2.28" occupancy="0.23" waitingTime="1.00" speed="12.08" departed="0" arrived="0" entered="3" left="0" laneChangedFrom="0" laneChangedTo="0"/>
    </interval>
    <interval begin="240.00" end="300.00" id="dump_60">
        <edge id="1fi" sampledSeconds="278.10" traveltime="25.29" density="18.65" occupancy="5.60" waitingTime="0.00" speed="9.83" departed="6" arrived="0" entered="9" left="6" laneChangedFrom="0" laneChangedTo="0"/>
        <edge id="1o" sampledSeconds="386.15" traveltime="44.19" density="13.17" occupancy="3.95" waitingTime="0.00" speed="11.06" departed="0" arrived="0" entered="5" left="9" laneChangedFrom="0" laneChangedTo="0"/>
        <edge id="1si" sampledSeconds="479.42" traveltime="76.97" density="33.69" occupancy="3.37" waitingTime="275.00" speed="3.08" departed="0" arrived="0" entered="6" left="4" laneChangedFrom="0" laneChangedTo="0"/>
        <edge id="2fi" sampledSeconds="340.39" traveltime="26.34" density="22.83" occupancy="6.85" waitingTime="0.00" speed="9.43" departed="7" arrived="0" entered="4" left="13" laneChangedFrom="0" laneChangedTo="0"/>
        <edge id="2o" sampledSeconds="242.20" traveltime="46.15" density="8.26" occupancy="2.48" waitingTime="0.00" speed="10.59" departed="0" arrived="0" entered="11" left="4" laneChangedFrom="0" laneChangedTo="0"/>
        <edge id="2si" sampledSeconds="462.04" traveltime="37.24" density="32.47" occupancy="3.25" waitingTime="207.00" speed="6.37" departed="0" arrived="0" entered="13" left="3" laneChangedFrom="0" laneChangedTo="0"/>
        <edge id="3fi" sampledSeconds="345.67" traveltime="28.82" density="23.18" occupancy="6.96" waitingTime="0.00" speed="8.62" departed="12" arrived="0" entered="0" left="12" laneChangedFrom="0" laneChangedTo="0"/>
        <edge id="3o" sampledSeconds="116.12" traveltime="43.98" density="3.96" occupancy="1.19" waitingTime="0.00" speed="11.11" departed="0" arrived="0" entered="7" left="0" laneChangedFrom="0" laneChangedTo="0"/>
        <edge id="3si" sampledSeconds="581.49" traveltime="47.04" density="40.87" occupancy="4.09" waitingTime="261.00" speed="5.04" departed="0" arrived="0" entered="12" left="17" laneChangedFrom="0" laneChangedTo="0"/>
        <edge id="4fi" sampledSeconds="142.60" traveltime="22.36" density="9.56" occupancy="2.87" waitingTime="0.00" speed="11.11" departed="0" arrived="0" entered="3" left="7" laneChangedFrom="0" laneChangedTo="0"/>
        <edge id="4o" sampledSeconds="329.71" traveltime="45.90" density="11.25" occupancy="3.37" waitingTime="0.00" speed="10.65" departed="0" arrived="0" entered="13" left="3" laneChangedFrom="0" laneChangedTo="0"/>
        <edge id="4si" sampledSeconds="276.36" traveltime="32.76" density="19.42" occupancy="1.94" waitingTime="110.00" speed="7.24" departed="0" arrived="0" entered="7" left="9" laneChangedFrom="0" laneChangedTo="0"/>
    </interval>
    <interval begin="300.00" end="360.00" id="dump_60">
        <edge id="1fi" sampledSeconds="272.06" traveltime="26.92" density="18.25" occupancy="5.47" waitingTime="0.00" speed="9.23" departed="6" arrived="0" entered="0" left="15" laneChangedFrom="0" laneChangedTo="0"/>
        <edge id="1o" sampledSeconds="262.25" traveltime="44.88" density="8.94" occupancy="2.68" waitingTime="0.00" speed="10.89" departed="0" arrived="0" entered="9" left="0" laneChangedFrom="0" laneChangedTo="0"/>
        <edge id="1si" sampledSeconds="803.44" traveltime="54.19" density="56.46" occupancy="5.65" waitingTime="357.00" speed="4.38" departed="0" arrived="0" entered="15" left="14" laneChangedFrom="0" laneChangedTo="0"/>
        <edge id="2fi" sampledSeconds="391.11" traveltime="25.50" density="26.23" occupancy="7.87" waitingTime="0.00" speed="9.75" departed="6" arrived="2" entered="11" left="12" laneChangedFrom="0" laneChangedTo="0"/>
        <edge id="2o" sampledSeconds="701.33" traveltime="44.62" density="23.92" occupancy="7.18" waitingTime="0.00" speed="10.95" departed="0" arrived="0" entered="12" left="12" laneChangedFrom="0" laneChangedTo="0"/>
        <edge id="2si" sampledSeconds="515.85" traveltime="51.03" density="36.25" occupancy="3.63" waitingTime="233.00" speed="4.65" departed="0" arrived="0" entered="12" left="16" laneChangedFrom="0" laneChangedTo="0"/>
        <edge id="3fi" sampledSeconds="449.37" traveltime="27.18" density="30.14" occupancy="9.04" waitingTime="0.00" speed="9.14" departed="11" arrived="6" entered="7" left="10" laneChangedFrom="0" laneChangedTo="0"/>
        <edge id="3o" sampledSeconds="196.71" traveltime="44.68" density="6.71" occupancy="2.01" waitingTime="0.00" speed="10.94" departed="0" arrived="0" entered="0" left="7" laneChangedFrom="0" laneChangedTo="0"/>
        <edge id="3si" sampledSeconds="502.81" traveltime="47.75" density="35.34" occupancy="3.53" waitingTime="285.00" speed="4.97" departed="0" arrived="0" entered="11" left="1" laneChangedFrom="0" laneChangedTo="0"/>
        <edge id="4fi" sampledSeconds="306.47" traveltime="22.37" density="20.55" occupancy="6.17" waitingTime="0.00" speed="11.11" departed="0" arrived="0" entered="14" left="13" laneChangedFrom="0" laneChangedTo="0"/>
        <edge id="4o" sampledSeconds="593.84" traveltime="45.34" density="20.25" occupancy="6.08" waitingTime="0.00" speed="10.78" departed="0" arrived="0" entered="13" left="14" laneChangedFrom="0" laneChangedTo="0"/>
        <edge id="4si" sampledSeconds="211.63" traveltime="26.20" density="14.87" occupancy="1.49" waitingTime="48.00" speed="9.05" departed="0" arrived="0" entered="12" left="1" laneChangedFrom="0" laneChangedTo="0"/>
    </interval>
    <interval begin="360.00" end="420.00" id="dump_60">
        <edge id="1fi" sampledSeconds="375.52" traveltime="24.99" density="25.19" occupancy="7.56" waitingTime="0.00" speed="9.94" departed="6" arrived="0" entered="9" left="14" laneChangedFrom="0" laneChangedTo="0"/>
        <edge id="1o" sampledSeconds="158.62" traveltime="44.95" density="5.41" occupancy="1.62" waitingTime="0.00" speed="10.87" departed="0" arrived="0" entered="4" left="9" laneChangedFrom="0" laneChangedTo="0"/>
        <edge id="1si" sampledSeconds="929.94" traveltime="71.75" density="65.35" occupancy="6.54" waitingTime="589.00" speed="3.31" departed="0" arrived="0" entered="14" left="9" laneChangedFrom="0" laneChangedTo="0"/>
        <edge id="2fi" sampledSeconds="500.49" traveltime="24.99" density="33.57" occupancy="10.07" waitingTime="0.00" speed="9.94" departed="5" arrived="9" entered="15" left="11" laneChangedFrom="0" laneChangedTo="0"/>
        <edge id="2o" sampledSeconds="591.66" traveltime="47.24" density="20.18" occupancy="6.05" waitingTime="0.00" speed="10.34" departed="0" arrived="0" entered="18" left="14" laneChangedFrom="0" laneChangedTo="0"/>
        <edge id="2si" sampledSeconds="908.54" traveltime="67.01" density="63.85" occupancy="6.39" waitingTime="508.00" speed="3.54" departed="0" arrived="0" entered="11" left="14" laneChangedFrom="0" laneChangedTo="0"/>
        <edge id="3fi" sampledSeconds="431.34" traveltime="28.08" density="28.93" occupancy="8.68" waitingTime="0.00" speed="8.85" departed="11" arrived="1" entered="6" left="14" laneChangedFrom="0" laneChangedTo="0"/>
        <edge id="3o" sampledSeconds="381.94" traveltime="44.24" density="13.03" occupancy="3.91" waitingTime="0.00" speed="11.04" departed="0" arrived="0" entered="9" left="6" laneChangedFrom="0" laneChangedTo="0"/>
        <edge id="3si" sampledSeconds="428.63" traveltime="33.37" density="30.12" occupancy="3.01" waitingTime="113.00" speed="7.11" departed="0" arrived="0" entered="13" left="15" laneChangedFrom="0" laneChangedTo="0"/>
        <edge id="4fi" sampledSeconds="282.93" traveltime="22.36" density="18.98" occupancy="5.69" waitingTime="0.00" speed="11.11" departed="0" arrived="0" entered="16" left="9" laneChangedFrom="0" laneChangedTo="0"/>
        <edge id="4o" sampledSeconds="613.21" traveltime="44.92" density="20.92" occupancy="6.27" waitingTime="0.00" speed="10.88" departed="0" arrived="0" entered="12" left="16" laneChangedFrom="0" laneChangedTo="0"/>
        <edge id="4si" sampledSeconds="447.74" traveltime="34.71" density="31.47" occupancy="3.15" waitingTime="153.00" speed="6.83" departed="0" arrived="0" entered="10" left="13" laneChangedFrom="0" laneChangedTo="0"/>
    </interval>
    <interval begin="420.00" end="480.00" id="dump_60">
        <edge id="1fi" sampledSeconds="274.36" traveltime="25.93" density="18.40" occupancy="5.52" waitingTime="0.00" speed="9.58" departed="6" arrived="0" entered="8" left="7" laneChangedFrom="0" laneChangedTo="0"/>
        <edge id="1o" sampledSeconds="511.41" traveltime="45.08" density="17.44" occupancy="5.23" waitingTime="0.00" speed="10.84" departed="0" arrived="0" entered="12" left="8" laneChangedFrom="0" laneChangedTo="0"/>
        <edge id="1si" sampledSeconds="1001.88" traveltime="161.86" density="70.41" occupancy="7.04" waitingTime="707.00" speed="1.47" departed="0" arrived="0" entered="7" left="4" laneChangedFrom="0" laneChangedTo="0"/>
        <edge id="2fi" sampledSeconds="551.19" traveltime="24.50" density="36.97" occupancy="11.09" waitingTime="0.00" speed="10.14" departed="7" arrived="0" entered="16" left="18" laneChangedFrom="0" laneChangedTo="0"/>
        <edge id="2o" sampledSeconds="625.64" traveltime="44.88" density="21.34" occupancy="6.40" waitingTime="0.00" speed="10.89" departed="0" arrived="0" entered="11" left="16" laneChangedFrom="0" laneChangedTo="0"/>
        <edge id="2si" sampledSeconds="577.24" traveltime="34.58" density="40.57" occupancy="4.06" waitingTime="231.00" speed="6.86" departed="0" arrived="0" entered="18" left="7" laneChangedFrom="0" laneChangedTo="0"/>
        <edge id="3fi" sampledSeconds="497.50" traveltime="26.78" density="33.37" occupancy="10.01" waitingTime="0.00" speed="9.28" departed="12" arrived="9" entered="5" left="9" laneChangedFrom="0" laneChangedTo="0"/>
        <edge id="3o" sampledSeconds="287.45" traveltime="45.12" density="9.80" occupancy="2.94" waitingTime="0.00" speed="10.83" departed="0" arrived="0" entered="10" left="5" laneChangedFrom="0" laneChangedTo="0"/>
        <edge id="3si" sampledSeconds="659.91" traveltime="64.36" density="46.38" occupancy="4.64" waitingTime="363.00" speed="3.68" departed="0" arrived="0" entered="10" left="17" laneChangedFrom="0" laneChangedTo="0"/>
        <edge id="4fi" sampledSeconds="294.30" traveltime="22.37" density="19.74" occupancy="5.92" waitingTime="0.00" speed="11.11" departed="0" arrived="0" entered="12" left="12" laneChangedFrom="0" laneChangedTo="0"/>
        <edge id="4o" sampledSeconds="658.81" traveltime="45.04" density="22.47" occupancy="6.74" waitingTime="0.00" speed="10.85" departed="0" arrived="0" entered="17" left="12" laneChangedFrom="0" laneChangedTo="0"/>
        <edge id="4si" sampledSeconds="725.36" traveltime="59.34" density="50.98" occupancy="5.10" waitingTime="423.00" speed="4.00" departed="0" arrived="0" entered="11" left="16" laneChangedFrom="0" laneChangedTo="0"/>
    </interval>
    <interval begin="480.00" end="540.00" id="dump_60">
        <edge id="1fi" sampledSeconds="428.67" traveltime="25.10" density="28.75" occupancy="8.63" waitingTime="0.00" speed="9.90" departed="6" arrived="0" entered="8" left="20" laneChangedFrom="0" laneChangedTo="0"/>
        <edge id="1o" sampledSeconds="439.70" traveltime="44.53" density="15.00" occupancy="4.50" waitingTime="0.00" speed="10.97" departed="0" arrived="0" entered="9" left="8" laneChangedFrom="0" laneChangedTo="0"/>
        <edge id="1si" sampledSeconds="1421.16" traveltime="84.64" density="99.88" occupancy="9.99" waitingTime="902.00" speed="2.80" departed="0" arrived="0" entered="20" left="13" laneChangedFrom="0" laneChangedTo="0"/>
        <edge id="2fi" sampledSeconds="438.35" traveltime="25.34" density="29.40" occupancy="8.82" waitingTime="0.00" speed="9.81" departed="6" arrived="9" entered="10" left="13" laneChangedFrom="0" laneChangedTo="0"/>
        <edge id="2o" sampledSeconds="685.80" traveltime="44.90" density="23.39" occupancy="7.02" waitingTime="0.00" speed="10.88" departed="0" arrived="0" entered="13" left="11" laneChangedFrom="0" laneChangedTo="0"/>
        <edge id="2si" sampledSeconds="678.00" traveltime="55.63" density="47.65" occupancy="4.76" waitingTime="321.00" speed="4.26" departed="0" arrived="0" entered="13" left="21" laneChangedFrom="0" laneChangedTo="0"/>
        <edge id="3fi" sampledSeconds="520.79" traveltime="26.56" density="34.93" occupancy="10.48" waitingTime="0.00" speed="9.36" departed="11" arrived="6" entered="8" left="14" laneChangedFrom="0" laneChangedTo="0"/>
        <edge id="3o" sampledSeconds="226.29" traveltime="46.10" density="7.72" occupancy="2.32" waitingTime="0.00" speed="10.60" departed="0" arrived="0" entered="4" left="8" laneChangedFrom="0" laneChangedTo="0"/>
        <edge id="3si" sampledSeconds="730.04" traveltime="52.68" density="51.31" occupancy="5.13" waitingTime="438.00" speed="4.50" departed="0" arrived="0" entered="13" left="0" laneChangedFrom="0" laneChangedTo="0"/>
        <edge id="4fi" sampledSeconds="357.03" traveltime="22.36" density="23.95" occupancy="7.18" waitingTime="0.00" speed="11.11" departed="0" arrived="0" entered="13" left="20" laneChangedFrom="0" laneChangedTo="0"/>
        <edge id="4o" sampledSeconds="598.15" traveltime="45.20" density="20.40" occupancy="6.12" waitingTime="0.00" speed="10.81" departed="0" arrived="0" entered="12" left="13" laneChangedFrom="0" laneChangedTo="0"/>
        <edge id="4si" sampledSeconds="774.72" traveltime="50.54" density="54.45" occupancy="5.44" waitingTime="439.00" speed="4.69" departed="0" arrived="0" entered="21" left="2" laneChangedFrom="0" laneChangedTo="0"/>
    </interval>
    <interval begin="540.00" end="600.00" id="dump_60">
        <edge id="1fi" sampledSeconds="405.89" traveltime="24.92" density="27.22" occupancy="8.17" waitingTime="0.00" speed="9.97" departed="5" arrived="0" entered="14" left="16" laneChangedFrom="0" laneChangedTo="0"/>
        <edge id="1o" sampledSeconds="659.26" traveltime="45.42" density="22.49" occupancy="6.75" waitingTime="0.00" speed="10.76" departed="0" arrived="0" entered="16" left="14" laneChangedFrom="0" laneChangedTo="0"/>
        <edge id="1si" sampledSeconds="1881.54" traveltime="125.68" density="132.23" occupancy="13.22" waitingTime="1331.00" speed="1.89" departed="0" arrived="0" entered="16" left="14" laneChangedFrom="0" laneChangedTo="0"/>
        <edge id="2fi" sampledSeconds="508.52" traveltime="24.67" density="34.11" occupancy="10.23" waitingTime="0.00" speed="10.07" departed="5" arrived="9" entered="16" left="11" laneChangedFrom="0" laneChangedTo="0"/>
        <edge id="2o" sampledSeconds="630.43" traveltime="45.43" density="21.50" occupancy="6.45" waitingTime="0.00" speed="10.76" departed="0" arrived="0" entered="19" left="15" laneChangedFrom="0" laneChangedTo="0"/>
        <edge id="2si" sampledSeconds="877.82" traveltime="63.19" density="61.69" occupancy="6.17" waitingTime="483.00" speed="3.75" departed="0" arrived="0" entered="11" left="14" laneChangedFrom="0" laneChangedTo="0"/>
        <edge id="3fi" sampledSeconds="467.19" traveltime="27.13" density="31.33" occupancy="9.40" waitingTime="1.00" speed="9.16" departed="9" arrived="1" entered="10" left="14" laneChangedFrom="0" laneChangedTo="0"/>
        <edge id="3o" sampledSeconds="556.87" traveltime="44.79" density="18.99" occupancy="5.70" waitingTime="0.00" speed="10.91" departed="0" arrived="0" entered="14" left="10" laneChangedFrom="0" laneChangedTo="0"/>
        <edge id="3si" sampledSeconds="537.40" traveltime="38.92" density="37.77" occupancy="3.78" waitingTime="167.00" speed="6.09" departed="0" arrived="0" entered="15" left="20" laneChangedFrom="0" laneChangedTo="0"/>
        <edge id="4fi" sampledSeconds="276.51" traveltime="22.36" density="18.55" occupancy="5.56" waitingTime="0.00" speed="11.11" departed="0" arrived="0" entered="16" left="9" laneChangedFrom="0" laneChangedTo="0"/>
        <edge id="4o" sampledSeconds="639.77" traveltime="44.90" density="21.82" occupancy="6.55" waitingTime="0.00" speed="10.88" departed="0" arrived="0" entered="13" left="16" laneChangedFrom="0" laneChangedTo="0"/>
        <edge id="4si" sampledSeconds="635.13" traveltime="43.88" density="44.64" occupancy="4.46" waitingTime="240.00" speed="5.40" departed="0" arrived="0" entered="9" left="22" laneChangedFrom="0" laneChangedTo="0"/>
    </interval>
    <interval begin="600.00" end="660.00" id="dump_60">
        <edge id="1fi" sampledSeconds="538.31" traveltime="24.61" density="36.10" occupancy="10.83" waitingTime="0.00" speed="10.10" departed="6" arrived="3" entered="16" left="15" laneChangedFrom="0" laneChangedTo="0"/>
        <edge id="1o" sampledSeconds="593.21" traveltime="45.19" density="20.23" occupancy="6.07" waitingTime="0.00" speed="10.81" departed="0" arrived="0" entered="15" left="16" laneChangedFrom="0" laneChangedTo="0"/>
        <edge id="1si" sampledSeconds="1870.69" traveltime="122.36" density="131.47" occupancy="13.15" waitingTime="1127.00" speed="1.94" departed="0" arrived="0" entered="15" left="7" laneChangedFrom="0" laneChangedTo="0"/>
        <edge id="2fi" sampledSeconds="572.12" traveltime="24.98" density="38.37" occupancy="11.51" waitingTime="0.00" speed="9.95" departed="7" arrived="2" entered="16" left="19" laneChangedFrom="0" laneChangedTo="0"/>
        <edge id="2o" sampledSeconds="626.77" traveltime="45.48" density="21.38" occupancy="6.41" waitingTime="0.00" speed="10.74" departed="0" arrived="0" entered="10" left="16" laneChangedFrom="0" laneChangedTo="0"/>
        <edge id="2si" sampledSeconds="629.10" traveltime="38.28" density="44.21" occupancy="4.42" waitingTime="281.00" speed="6.19" departed="0" arrived="0" entered="19" left="7" laneChangedFrom="0" laneChangedTo="0"/>
        <edge id="3fi" sampledSeconds="550.23" traveltime="25.44" density="36.90" occupancy="11.07" waitingTime="0.00" speed="9.77" departed="10" arrived="9" entered="10" left="12" laneChangedFrom="0" laneChangedTo="0"/>
        <edge id="3o" sampledSeconds="579.40" traveltime="44.79" density="19.76" occupancy="5.93" waitingTime="0.00" speed="10.91" departed="0" arrived="0" entered="14" left="10" laneChangedFrom="0" laneChangedTo="0"/>
        <edge id="3si" sampledSeconds="769.30" traveltime="63.98" density="54.07" occupancy="5.41" waitingTime="424.00" speed="3.71" departed="0" arrived="0" entered="11" left="19" laneChangedFrom="0" laneChangedTo="0"/>
        <edge id="4fi" sampledSeconds="309.60" traveltime="22.37" density="20.76" occupancy="6.23" waitingTime="0.00" speed="11.11" departed="0" arrived="0" entered="12" left="13" laneChangedFrom="0" laneChangedTo="0"/>
        <edge id="4o" sampledSeconds="644.28" traveltime="45.09" density="21.97" occupancy="6.59" waitingTime="0.00" speed="10.84" departed="0" arrived="0" entered="15" left="12" laneChangedFrom="0" laneChangedTo="0"/>
        <edge id="4si" sampledSeconds="792.56" traveltime="62.19" density="55.70" occupancy="5.57" waitingTime="463.00" speed="3.81" departed="0" arrived="0" entered="12" left="18" laneChangedFrom="0" laneChangedTo="0"/>
    </interval>
    <interval begin="660.00" end="720.00" id="dump_60">
        <edge id="1fi" sampledSeconds="481.58" traveltime="25.23" density="32.30" occupancy="9.69" waitingTime="0.00" speed="9.85" departed="7" arrived="0" entered="12" left="22" laneChangedFrom="0" laneChangedTo="0"/>
        <edge id="1o" sampledSeconds="670.45" traveltime="45.21" density="22.87" occupancy="6.86" waitingTime="0.00" speed="10.81" departed="0" arrived="0" entered="11" left="12" laneChangedFrom="0" laneChangedTo="0"/>
        <edge id="1si" sampledSeconds="2203.05" traveltime="125.87" density="154.83" occupancy="15.48" waitingTime="1460.00" speed="1.88" departed="0" arrived="0" entered="22" left="22" laneChangedFrom="0" laneChangedTo="0"/>
        <edge id="2fi" sampledSeconds="440.02" traveltime="24.95" density="29.51" occupancy="8.85" waitingTime="0.00" speed="9.96" departed="6" arrived="7" entered="12" left="11" laneChangedFrom="0" laneChangedTo="0"/>
        <edge id="2o" sampledSeconds="652.56" traveltime="44.50" density="22.26" occupancy="6.68" waitingTime="0.00" speed="10.98" departed="0" arrived="0" entered="13" left="12" laneChangedFrom="0" laneChangedTo="0"/>
        <edge id="2si" sampledSeconds="717.51" traveltime="55.09" density="50.43" occupancy="5.04" waitingTime="339.00" speed="4.30" departed="0" arrived="0" entered="11" left="22" laneChangedFrom="0" laneChangedTo="0"/>
        <edge id="3fi" sampledSeconds="534.76" traveltime="25.52" density="35.87" occupancy="10.76" waitingTime="0.00" speed="9.74" departed="9" arrived="14" entered="12" left="9" laneChangedFrom="0" laneChangedTo="0"/>