<?xml version="1.0" encoding="UTF-8"?>

<!-- generated on Mon Aug 29 14:17:53 2016 by SUMO Version dev-SVN-r21344
<?xml version="1.0" encoding="UTF-8"?>

<configuration xmlns:xsi="http://www.w3.org/2001/XMLSchema-instance" xsi:noNamespaceSchemaLocation="http://sumo.dlr.de/xsd/sumoConfiguration.xsd">

    <input>
        <net-file value="net.net.xml"/>
        <route-files value="input_routes.rou.xml"/>
        <additional-files value="input_additional.add.xml"/>
    </input>

    <time>
        <begin value="0"/>
        <end value="1000"/>
    </time>

    <report>
        <xml-validation value="never"/>
        <duration-log.disable value="true"/>
        <no-step-log value="true"/>
    </report>

</configuration>
-->

<meandata xmlns:xsi="http://www.w3.org/2001/XMLSchema-instance" xsi:noNamespaceSchemaLocation="http://sumo.dlr.de/xsd/meandata_file.xsd">
    <interval begin="0.00" end="60.00" id="dump_60">
        <edge id="1fi" sampledSeconds="0.00" departed="0" arrived="0" entered="0" left="0" laneChangedFrom="0" laneChangedTo="0"/>
        <edge id="1o" sampledSeconds="0.00" departed="0" arrived="0" entered="0" left="0" laneChangedFrom="0" laneChangedTo="0"/>
        <edge id="1si" sampledSeconds="0.00" departed="0" arrived="0" entered="0" left="0" laneChangedFrom="0" laneChangedTo="0"/>
        <edge id="2fi" sampledSeconds="0.00" departed="0" arrived="0" entered="0" left="0" laneChangedFrom="0" laneChangedTo="0"/>
        <edge id="2o" sampledSeconds="0.00" departed="0" arrived="0" entered="0" left="0" laneChangedFrom="0" laneChangedTo="0"/>
        <edge id="2si" sampledSeconds="0.00" departed="0" arrived="0" entered="0" left="0" laneChangedFrom="0" laneChangedTo="0"/>
        <edge id="3fi" sampledSeconds="0.00" departed="0" arrived="0" entered="0" left="0" laneChangedFrom="0" laneChangedTo="0"/>
        <edge id="3o" sampledSeconds="0.00" departed="0" arrived="0" entered="0" left="0" laneChangedFrom="0" laneChangedTo="0"/>
        <edge id="3si" sampledSeconds="0.00" departed="0" arrived="0" entered="0" left="0" laneChangedFrom="0" laneChangedTo="0"/>
        <edge id="4fi" sampledSeconds="0.00" departed="0" arrived="0" entered="0" left="0" laneChangedFrom="0" laneChangedTo="0"/>
        <edge id="4o" sampledSeconds="0.00" departed="0" arrived="0" entered="0" left="0" laneChangedFrom="0" laneChangedTo="0"/>
        <edge id="4si" sampledSeconds="0.00" departed="0" arrived="0" entered="0" left="0" laneChangedFrom="0" laneChangedTo="0"/>
    </interval>
    <interval begin="60.00" end="120.00" id="dump_60">
        <edge id="1fi" sampledSeconds="28.00" traveltime="27.97" density="1.88" occupancy="0.94" waitingTime="0.00" speed="8.88" departed="2" arrived="0" entered="0" left="0" laneChangedFrom="0" laneChangedTo="0"/>
        <edge id="1o" sampledSeconds="0.00" departed="0" arrived="0" entered="0" left="0" laneChangedFrom="0" laneChangedTo="0"/>
        <edge id="1si" sampledSeconds="0.00" departed="0" arrived="0" entered="0" left="0" laneChangedFrom="0" laneChangedTo="0"/>
        <edge id="2fi" sampledSeconds="28.00" traveltime="28.24" density="1.88" occupancy="0.94" waitingTime="0.00" speed="8.80" departed="2" arrived="0" entered="0" left="0" laneChangedFrom="0" laneChangedTo="0"/>
        <edge id="2o" sampledSeconds="0.00" departed="0" arrived="0" entered="0" left="0" laneChangedFrom="0" laneChangedTo="0"/>
        <edge id="2si" sampledSeconds="0.00" departed="0" arrived="0" entered="0" left="0" laneChangedFrom="0" laneChangedTo="0"/>
        <edge id="3fi" sampledSeconds="51.00" traveltime="28.91" density="3.42" occupancy="1.71" waitingTime="0.00" speed="8.60" departed="4" arrived="0" entered="0" left="0" laneChangedFrom="0" laneChangedTo="0"/>
        <edge id="3o" sampledSeconds="0.00" departed="0" arrived="0" entered="0" left="0" laneChangedFrom="0" laneChangedTo="0"/>
        <edge id="3si" sampledSeconds="0.00" departed="0" arrived="0" entered="0" left="0" laneChangedFrom="0" laneChangedTo="0"/>
        <edge id="4fi" sampledSeconds="0.00" departed="0" arrived="0" entered="0" left="0" laneChangedFrom="0" laneChangedTo="0"/>
        <edge id="4o" sampledSeconds="0.00" departed="0" arrived="0" entered="0" left="0" laneChangedFrom="0" laneChangedTo="0"/>
        <edge id="4si" sampledSeconds="0.00" departed="0" arrived="0" entered="0" left="0" laneChangedFrom="0" laneChangedTo="0"/>
    </interval>
    <interval begin="120.00" end="180.00" id="dump_60">
        <edge id="1fi" sampledSeconds="156.03" traveltime="26.00" density="10.47" occupancy="5.23" waitingTime="0.00" speed="9.56" departed="6" arrived="0" entered="0" left="6" laneChangedFrom="0" laneChangedTo="0"/>
        <edge id="1o" sampledSeconds="68.97" traveltime="46.87" density="2.35" occupancy="1.18" waitingTime="0.00" speed="10.43" departed="0" arrived="0" entered="3" left="0" laneChangedFrom="0" laneChangedTo="0"/>
        <edge id="1si" sampledSeconds="92.69" traveltime="18.58" density="6.51" occupancy="1.09" waitingTime="0.00" speed="12.77" departed="0" arrived="0" entered="6" left="4" laneChangedFrom="0" laneChangedTo="0"/>
        <edge id="2fi" sampledSeconds="155.59" traveltime="25.96" density="10.44" occupancy="5.22" waitingTime="0.00" speed="9.57" departed="6" arrived="0" entered="0" left="6" laneChangedFrom="0" laneChangedTo="0"/>
        <edge id="2o" sampledSeconds="0.00" departed="0" arrived="0" entered="0" left="0" laneChangedFrom="0" laneChangedTo="0"/>
        <edge id="2si" sampledSeconds="94.87" traveltime="19.23" density="6.67" occupancy="1.11" waitingTime="2.00" speed="12.33" departed="0" arrived="0" entered="6" left="3" laneChangedFrom="0" laneChangedTo="0"/>
        <edge id="3fi" sampledSeconds="311.16" traveltime="25.99" density="20.87" occupancy="10.43" waitingTime="0.00" speed="9.56" departed="12" arrived="0" entered="0" left="12" laneChangedFrom="0" laneChangedTo="0"/>
        <edge id="3o" sampledSeconds="0.00" departed="0" arrived="0" entered="0" left="0" laneChangedFrom="0" laneChangedTo="0"/>
        <edge id="3si" sampledSeconds="318.95" traveltime="35.05" density="22.42" occupancy="3.74" waitingTime="135.00" speed="6.77" departed="0" arrived="0" entered="12" left="0" laneChangedFrom="0" laneChangedTo="0"/>
        <edge id="4fi" sampledSeconds="0.00" departed="0" arrived="0" entered="0" left="0" laneChangedFrom="0" laneChangedTo="0"/>
        <edge id="4o" sampledSeconds="64.63" traveltime="47.16" density="2.20" occupancy="1.10" waitingTime="0.00" speed="10.36" departed="0" arrived="0" entered="4" left="0" laneChangedFrom="0" laneChangedTo="0"/>
        <edge id="4si" sampledSeconds="0.00" departed="0" arrived="0" entered="0" left="0" laneChangedFrom="0" laneChangedTo="0"/>
    </interval>
    <interval begin="180.00" end="240.00" id="dump_60">
        <edge id="1fi" sampledSeconds="229.53" traveltime="25.37" density="15.39" occupancy="7.70" waitingTime="0.00" speed="9.79" departed="6" arrived="0" entered="3" left="9" laneChangedFrom="0" laneChangedTo="0"/>
        <edge id="1o" sampledSeconds="105.93" traveltime="47.35" density="3.61" occupancy="1.81" waitingTime="0.00" speed="10.32" departed="0" arrived="0" entered="6" left="3" laneChangedFrom="0" laneChangedTo="0"/>
        <edge id="1si" sampledSeconds="305.49" traveltime="41.64" density="21.47" occupancy="3.58" waitingTime="132.00" speed="5.70" departed="0" arrived="0" entered="9" left="3" laneChangedFrom="0" laneChangedTo="0"/>
        <edge id="2fi" sampledSeconds="173.79" traveltime="25.31" density="11.66" occupancy="5.83" waitingTime="0.00" speed="9.82" departed="6" arrived="0" entered="5" left="6" laneChangedFrom="0" laneChangedTo="0"/>
        <edge id="2o" sampledSeconds="317.03" traveltime="47.01" density="10.81" occupancy="5.41" waitingTime="0.00" speed="10.40" departed="0" arrived="0" entered="8" left="5" laneChangedFrom="0" laneChangedTo="0"/>
        <edge id="2si" sampledSeconds="304.20" traveltime="49.27" density="21.38" occupancy="3.56" waitingTime="156.00" speed="4.81" departed="0" arrived="0" entered="6" left="7" laneChangedFrom="0" laneChangedTo="0"/>
        <edge id="3fi" sampledSeconds="311.46" traveltime="26.02" density="20.89" occupancy="10.44" waitingTime="0.00" speed="9.55" departed="12" arrived="0" entered="0" left="12" laneChangedFrom="0" laneChangedTo="0"/>
        <edge id="3o" sampledSeconds="0.00" departed="0" arrived="0" entered="0" left="0" laneChangedFrom="0" laneChangedTo="0"/>
        <edge id="3si" sampledSeconds="348.90" traveltime="28.07" density="24.52" occupancy="4.09" waitingTime="83.00" speed="8.45" departed="0" arrived="0" entered="12" left="14" laneChangedFrom="0" laneChangedTo="0"/>
        <edge id="4fi" sampledSeconds="108.62" traveltime="23.74" density="7.28" occupancy="3.64" waitingTime="0.00" speed="10.47" departed="0" arrived="0" entered="9" left="3" laneChangedFrom="0" laneChangedTo="0"/>
        <edge id="4o" sampledSeconds="431.22" traveltime="46.76" density="14.71" occupancy="7.35" waitingTime="0.00" speed="10.45" departed="0" arrived="0" entered="7" left="9" laneChangedFrom="0" laneChangedTo="0"/>
        <edge id="4si" sampledSeconds="28.63" traveltime="19.29" density="2.01" occupancy="0.34" waitingTime="0.00" speed="12.29" departed="0" arrived="0" entered="3" left="0" laneChangedFrom="0" laneChangedTo="0"/>
    </interval>
    <interval begin="240.00" end="300.00" id="dump_60">
        <edge id="1fi" sampledSeconds="263.01" traveltime="25.09" density="17.64" occupancy="8.82" waitingTime="0.00" speed="9.90" departed="6" arrived="0" entered="8" left="6" laneChangedFrom="0" laneChangedTo="0"/>
        <edge id="1o" sampledSeconds="392.66" traveltime="47.16" density="13.39" occupancy="6.70" waitingTime="0.00" speed="10.36" departed="0" arrived="0" entered="3" left="8" laneChangedFrom="0" laneChangedTo="0"/>
        <edge id="1si" sampledSeconds="357.11" traveltime="46.70" density="25.10" occupancy="4.18" waitingTime="135.00" speed="5.08" departed="0" arrived="0" entered="6" left="7" laneChangedFrom="0" laneChangedTo="0"/>
        <edge id="2fi" sampledSeconds="325.95" traveltime="25.11" density="21.86" occupancy="10.93" waitingTime="0.00" speed="9.89" departed="6" arrived="0" entered="4" left="13" laneChangedFrom="0" laneChangedTo="0"/>
        <edge id="2o" sampledSeconds="275.24" traveltime="47.50" density="9.39" occupancy="4.69" waitingTime="0.00" speed="10.29" departed="0" arrived="0" entered="11" left="4" laneChangedFrom="0" laneChangedTo="0"/>
        <edge id="2si" sampledSeconds="434.35" traveltime="35.78" density="30.53" occupancy="5.09" waitingTime="184.00" speed="6.63" departed="0" arrived="0" entered="13" left="2" laneChangedFrom="0" laneChangedTo="0"/>
        <edge id="3fi" sampledSeconds="313.09" traveltime="26.07" density="21.00" occupancy="10.50" waitingTime="0.00" speed="9.53" departed="12" arrived="0" entered="0" left="12" laneChangedFrom="0" laneChangedTo="0"/>
        <edge id="3o" sampledSeconds="108.48" traveltime="47.13" density="3.70" occupancy="1.85" waitingTime="0.00" speed="10.37" departed="0" arrived="0" entered="6" left="0" laneChangedFrom="0" laneChangedTo="0"/>
        <edge id="3si" sampledSeconds="590.18" traveltime="46.96" density="41.48" occupancy="6.91" waitingTime="287.00" speed="5.05" departed="0" arrived="0" entered="11" left="18" laneChangedFrom="0" laneChangedTo="0"/>
        <edge id="4fi" sampledSeconds="167.94" traveltime="23.71" density="11.26" occupancy="5.63" waitingTime="0.00" speed="10.48" departed="0" arrived="0" entered="4" left="8" laneChangedFrom="0" laneChangedTo="0"/>
        <edge id="4o" sampledSeconds="490.11" traveltime="47.06" density="16.72" occupancy="8.36" waitingTime="0.00" speed="10.38" departed="0" arrived="0" entered="17" left="5" laneChangedFrom="0" laneChangedTo="0"/>
        <edge id="4si" sampledSeconds="326.27" traveltime="33.72" density="22.93" occupancy="3.82" waitingTime="110.00" speed="7.03" departed="0" arrived="0" entered="8" left="10" laneChangedFrom="0" laneChangedTo="0"/>
    </interval>
    <interval begin="300.00" end="360.00" id="dump_60">
        <edge id="1fi" sampledSeconds="268.81" traveltime="25.12" density="18.03" occupancy="9.01" waitingTime="0.00" speed="9.89" departed="6" arrived="0" entered="1" left="15" laneChangedFrom="0" laneChangedTo="0"/>
        <edge id="1o" sampledSeconds="281.11" traveltime="46.96" density="9.59" occupancy="4.79" waitingTime="0.00" speed="10.41" departed="0" arrived="0" entered="9" left="1" laneChangedFrom="0" laneChangedTo="0"/>
        <edge id="1si" sampledSeconds="565.77" traveltime="36.46" density="39.76" occupancy="6.63" waitingTime="155.00" speed="6.50" departed="0" arrived="0" entered="15" left="18" laneChangedFrom="0" laneChangedTo="0"/>
        <edge id="2fi" sampledSeconds="395.71" traveltime="24.55" density="26.54" occupancy="13.27" waitingTime="0.00" speed="10.12" departed="6" arrived="2" entered="13" left="12" laneChangedFrom="0" laneChangedTo="0"/>
        <edge id="2o" sampledSeconds="750.51" traveltime="46.96" density="25.60" occupancy="12.80" waitingTime="0.00" speed="10.41" departed="0" arrived="0" entered="13" left="13" laneChangedFrom="0" laneChangedTo="0"/>
        <edge id="2si" sampledSeconds="441.22" traveltime="45.92" density="31.01" occupancy="5.17" waitingTime="215.00" speed="5.16" departed="0" arrived="0" entered="11" left="16" laneChangedFrom="0" laneChangedTo="0"/>
        <edge id="3fi" sampledSeconds="437.98" traveltime="25.55" density="29.37" occupancy="14.69" waitingTime="0.00" speed="9.72" departed="12" arrived="5" entered="7" left="10" laneChangedFrom="0" laneChangedTo="0"/>
        <edge id="3o" sampledSeconds="228.57" traveltime="47.92" density="7.80" occupancy="3.90" waitingTime="0.00" speed="10.20" departed="0" arrived="0" entered="1" left="7" laneChangedFrom="0" laneChangedTo="0"/>
        <edge id="3si" sampledSeconds="545.22" traveltime="52.80" density="38.32" occupancy="6.39" waitingTime="323.00" speed="4.49" departed="0" arrived="0" entered="11" left="0" laneChangedFrom="0" laneChangedTo="0"/>
        <edge id="4fi" sampledSeconds="389.18" traveltime="23.80" density="26.10" occupancy="13.05" waitingTime="0.00" speed="10.44" departed="0" arrived="0" entered="15" left="15" laneChangedFrom="0" laneChangedTo="0"/>
        <edge id="4o" sampledSeconds="685.03" traveltime="47.14" density="23.36" occupancy="11.68" waitingTime="0.00" speed="10.37" departed="0" arrived="0" entered="15" left="14" laneChangedFrom="0" laneChangedTo="0"/>
        <edge id="4si" sampledSeconds="299.78" traveltime="29.60" density="21.07" occupancy="3.51" waitingTime="91.00" speed="8.01" departed="0" arrived="0" entered="15" left="1" laneChangedFrom="0" laneChangedTo="0"/>
    </interval>
    <interval begin="360.00" end="420.00" id="dump_60">
        <edge id="1fi" sampledSeconds="376.21" traveltime="24.79" density="25.23" occupancy="12.62" waitingTime="0.00" speed="10.02" departed="6" arrived="0" entered="9" left="15" laneChangedFrom="0" laneChangedTo="0"/>
        <edge id="1o" sampledSeconds="182.64" traveltime="46.99" density="6.23" occupancy="3.11" waitingTime="0.00" speed="10.40" departed="0" arrived="0" entered="6" left="9" laneChangedFrom="0" laneChangedTo="0"/>
        <edge id="1si" sampledSeconds="518.66" traveltime="40.84" density="36.45" occupancy="6.08" waitingTime="235.00" speed="5.81" departed="0" arrived="0" entered="15" left="7" laneChangedFrom="0" laneChangedTo="0"/>
        <edge id="2fi" sampledSeconds="525.89" traveltime="24.54" density="35.27" occupancy="17.64" waitingTime="0.00" speed="10.13" departed="5" arrived="10" entered="15" left="13" laneChangedFrom="0" laneChangedTo="0"/>
        <edge id="2o" sampledSeconds="737.51" traveltime="46.90" density="25.15" occupancy="12.58" waitingTime="0.00" speed="10.42" departed="0" arrived="0" entered="20" left="15" laneChangedFrom="0" laneChangedTo="0"/>
        <edge id="2si" sampledSeconds="898.91" traveltime="57.02" density="63.17" occupancy="10.53" waitingTime="482.00" speed="4.16" departed="0" arrived="0" entered="14" left="15" laneChangedFrom="0" laneChangedTo="0"/>
        <edge id="3fi" sampledSeconds="364.90" traveltime="25.61" density="24.47" occupancy="12.24" waitingTime="0.00" speed="9.70" departed="11" arrived="2" entered="3" left="14" laneChangedFrom="0" laneChangedTo="0"/>
        <edge id="3o" sampledSeconds="388.95" traveltime="47.18" density="13.27" occupancy="6.63" waitingTime="0.00" speed="10.36" departed="0" arrived="0" entered="9" left="4" laneChangedFrom="0" laneChangedTo="0"/>
        <edge id="3si" sampledSeconds="435.33" traveltime="31.66" density="30.59" occupancy="5.10" waitingTime="120.00" speed="7.49" departed="0" arrived="0" entered="13" left="17" laneChangedFrom="0" laneChangedTo="0"/>
        <edge id="4fi" sampledSeconds="366.28" traveltime="23.84" density="24.57" occupancy="12.28" waitingTime="0.00" speed="10.42" departed="0" arrived="0" entered="19" left="12" laneChangedFrom="0" laneChangedTo="0"/>
        <edge id="4o" sampledSeconds="763.73" traveltime="47.01" density="26.05" occupancy="13.02" waitingTime="0.00" speed="10.39" departed="0" arrived="0" entered="14" left="20" laneChangedFrom="0" laneChangedTo="0"/>
        <edge id="4si" sampledSeconds="605.89" traveltime="40.33" density="42.58" occupancy="7.10" waitingTime="204.00" speed="5.88" departed="0" arrived="0" entered="12" left="15" laneChangedFrom="0" laneChangedTo="0"/>
    </interval>
    <interval begin="420.00" end="480.00" id="dump_60">
        <edge id="1fi" sampledSeconds="257.92" traveltime="24.96" density="17.30" occupancy="8.65" waitingTime="0.00" speed="9.96" departed="6" arrived="0" entered="7" left="7" laneChangedFrom="0" laneChangedTo="0"/>
        <edge id="1o" sampledSeconds="531.56" traveltime="47.06" density="18.13" occupancy="9.07" waitingTime="0.00" speed="10.38" departed="0" arrived="0" entered="10" left="7" laneChangedFrom="0" laneChangedTo="0"/>
        <edge id="1si" sampledSeconds="580.31" traveltime="77.36" density="40.78" occupancy="6.80" waitingTime="307.00" speed="3.07" departed="0" arrived="0" entered="6" left="7" laneChangedFrom="0" laneChangedTo="0"/>
        <edge id="2fi" sampledSeconds="567.72" traveltime="24.39" density="38.08" occupancy="19.04" waitingTime="0.00" speed="10.19" departed="6" arrived="0" entered="18" left="19" laneChangedFrom="0" laneChangedTo="0"/>
        <edge id="2o" sampledSeconds="742.28" traveltime="46.99" density="25.32" occupancy="12.66" waitingTime="0.00" speed="10.40" departed="0" arrived="0" entered="15" left="18" laneChangedFrom="0" laneChangedTo="0"/>
        <edge id="2si" sampledSeconds="566.02" traveltime="33.46" density="39.78" occupancy="6.63" waitingTime="203.00" speed="7.09" departed="0" arrived="0" entered="19" left="7" laneChangedFrom="0" laneChangedTo="0"/>
        <edge id="3fi" sampledSeconds="524.44" traveltime="25.33" density="35.17" occupancy="17.59" waitingTime="0.00" speed="9.81" departed="13" arrived="9" entered="8" left="10" laneChangedFrom="0" laneChangedTo="0"/>
        <edge id="3o" sampledSeconds="344.93" traveltime="47.19" density="11.76" occupancy="5.88" waitingTime="0.00" speed="10.35" departed="0" arrived="0" entered="12" left="7" laneChangedFrom="0" laneChangedTo="0"/>
        <edge id="3si" sampledSeconds="584.97" traveltime="56.15" density="41.11" occupancy="6.85" waitingTime="331.00" speed="4.22" departed="0" arrived="0" entered="11" left="16" laneChangedFrom="0" laneChangedTo="0"/>
        <edge id="4fi" sampledSeconds="351.05" traveltime="23.99" density="23.54" occupancy="11.77" waitingTime="0.00" speed="10.36" departed="0" arrived="0" entered="14" left="14" laneChangedFrom="0" laneChangedTo="0"/>
        <edge id="4o" sampledSeconds="738.80" traveltime="46.94" density="25.20" occupancy="12.60" waitingTime="0.00" speed="10.41" departed="0" arrived="0" entered="16" left="13" laneChangedFrom="0" laneChangedTo="0"/>
        <edge id="4si" sampledSeconds="934.88" traveltime="61.94" density="65.70" occupancy="10.95" waitingTime="501.00" speed="3.83" departed="0" arrived="0" entered="13" left="20" laneChangedFrom="0" laneChangedTo="0"/>
    </interval>
    <interval begin="480.00" end="540.00" id="dump_60">
        <edge id="1fi" sampledSeconds="436.81" traveltime="24.65" density="29.30" occupancy="14.65" waitingTime="0.00" speed="10.08" departed="6" arrived="0" entered="9" left="19" laneChangedFrom="0" laneChangedTo="0"/>
        <edge id="1o" sampledSeconds="430.19" traveltime="47.06" density="14.67" occupancy="7.34" waitingTime="0.00" speed="10.38" departed="0" arrived="0" entered="8" left="9" laneChangedFrom="0" laneChangedTo="0"/>
        <edge id="1si" sampledSeconds="952.70" traveltime="56.54" density="66.95" occupancy="11.16" waitingTime="419.00" speed="4.19" departed="0" arrived="0" entered="20" left="13" laneChangedFrom="0" laneChangedTo="0"/>
        <edge id="2fi" sampledSeconds="530.92" traveltime="24.37" density="35.61" occupancy="17.80" waitingTime="0.00" speed="10.20" departed="5" arrived="9" entered="17" left="13" laneChangedFrom="0" laneChangedTo="0"/>
        <edge id="2o" sampledSeconds="831.11" traveltime="46.89" density="28.35" occupancy="14.17" waitingTime="0.00" speed="10.42" departed="0" arrived="0" entered="13" left="17" laneChangedFrom="0" laneChangedTo="0"/>
        <edge id="2si" sampledSeconds="734.33" traveltime="51.30" density="51.61" occupancy="8.60" waitingTime="339.00" speed="4.62" departed="0" arrived="0" entered="13" left="23" laneChangedFrom="0" laneChangedTo="0"/>
        <edge id="3fi" sampledSeconds="553.92" traveltime="25.24" density="37.15" occupancy="18.58" waitingTime="0.00" speed="9.85" departed="12" arrived="6" entered="10" left="15" laneChangedFrom="0" laneChangedTo="0"/>
        <edge id="3o" sampledSeconds="364.97" traveltime="47.30" density="12.45" occupancy="6.22" waitingTime="0.00" speed="10.33" departed="0" arrived="0" entered="6" left="10" laneChangedFrom="0" laneChangedTo="0"/>
        <edge id="3si" sampledSeconds="844.23" traveltime="53.82" density="59.33" occupancy="9.89" waitingTime="511.00" speed="4.41" departed="0" arrived="0" entered="15" left="0" laneChangedFrom="0" laneChangedTo="0"/>
        <edge id="4fi" sampledSeconds="382.00" traveltime="23.72" density="25.62" occupancy="12.81" waitingTime="0.00" speed="10.48" departed="0" arrived="0" entered="12" left="20" laneChangedFrom="0" laneChangedTo="0"/>
        <edge id="4o" sampledSeconds="639.48" traveltime="47.03" density="21.81" occupancy="10.91" waitingTime="0.00" speed="10.39" departed="0" arrived="0" entered="14" left="12" laneChangedFrom="0" laneChangedTo="0"/>
        <edge id="4si" sampledSeconds="794.16" traveltime="50.50" density="55.81" occupancy="9.30" waitingTime="421.00" speed="4.70" departed="0" arrived="0" entered="21" left="3" laneChangedFrom="0" laneChangedTo="0"/>
    </interval>
    <interval begin="540.00" end="600.00" id="dump_60">
        <edge id="1fi" sampledSeconds="371.50" traveltime="24.49" density="24.92" occupancy="12.46" waitingTime="0.00" speed="10.15" departed="5" arrived="0" entered="13" left="15" laneChangedFrom="0" laneChangedTo="0"/>
        <edge id="1o" sampledSeconds="712.68" traveltime="46.95" density="24.31" occupancy="12.15" waitingTime="0.00" speed="10.41" departed="0" arrived="0" entered="19" left="13" laneChangedFrom="0" laneChangedTo="0"/>
        <edge id="1si" sampledSeconds="1389.95" traveltime="93.74" density="97.68" occupancy="16.28" waitingTime="930.00" speed="2.53" departed="0" arrived="0" entered="15" left="15" laneChangedFrom="0" laneChangedTo="0"/>
        <edge id="2fi" sampledSeconds="534.72" traveltime="24.45" density="35.86" occupancy="17.93" waitingTime="0.00" speed="10.16" departed="7" arrived="8" entered="13" left="17" laneChangedFrom="0" laneChangedTo="0"/>
        <edge id="2o" sampledSeconds="726.09" traveltime="46.95" density="24.77" occupancy="12.38" waitingTime="0.00" speed="10.41" departed="0" arrived="0" entered="21" left="13" laneChangedFrom="0" laneChangedTo="0"/>
        <edge id="2si" sampledSeconds="1051.50" traveltime="58.98" density="73.90" occupancy="12.32" waitingTime="555.00" speed="4.02" departed="0" arrived="0" entered="16" left="15" laneChangedFrom="0" laneChangedTo="0"/>
        <edge id="3fi" sampledSeconds="485.45" traveltime="24.97" density="32.56" occupancy="16.28" waitingTime="0.00" speed="9.95" departed="10" arrived="2" entered="10" left="17" laneChangedFrom="0" laneChangedTo="0"/>
        <edge id="3o" sampledSeconds="580.68" traveltime="46.84" density="19.81" occupancy="9.90" waitingTime="0.00" speed="10.43" departed="0" arrived="0" entered="15" left="10" laneChangedFrom="0" laneChangedTo="0"/>
        <edge id="3si" sampledSeconds="603.80" traveltime="38.06" density="42.43" occupancy="7.07" waitingTime="211.00" speed="6.23" departed="0" arrived="0" entered="17" left="23" laneChangedFrom="0" laneChangedTo="0"/>
        <edge id="4fi" sampledSeconds="350.61" traveltime="23.92" density="23.51" occupancy="11.76" waitingTime="0.00" speed="10.39" departed="0" arrived="0" entered="18" left="11" laneChangedFrom="0" laneChangedTo="0"/>
        <edge id="4o" sampledSeconds="794.40" traveltime="47.07" density="27.09" occupancy="13.55" waitingTime="0.00" speed="10.38" departed="0" arrived="0" entered="16" left="19" laneChangedFrom="0" laneChangedTo="0"/>
        <edge id="4si" sampledSeconds="628.58" traveltime="40.52" density="44.18" occupancy="7.36" waitingTime="197.00" speed="5.85" departed="0" arrived="0" entered="11" left="23" laneChangedFrom="0" laneChangedTo="0"/>
    </interval>
    <interval begin="600.00" end="660.00" id="dump_60">
        <edge id="1fi" sampledSeconds="561.70" traveltime="24.64" density="37.67" occupancy="18.84" waitingTime="0.00" speed="10.09" departed="7" arrived="4" entered="16" left="16" laneChangedFrom="0" laneChangedTo="0"/>
        <edge id="1o" sampledSeconds="647.47" traveltime="47.33" density="22.08" occupancy="11.04" waitingTime="0.00" speed="10.32" departed="0" arrived="0" entered="13" left="16" laneChangedFrom="0" laneChangedTo="0"/>
        <edge id="1si" sampledSeconds="1313.40" traveltime="82.68" density="92.30" occupancy="15.38" waitingTime="703.00" speed="2.87" departed="0" arrived="0" entered="16" left="7" laneChangedFrom="0" laneChangedTo="0"/>
        <edge id="2fi" sampledSeconds="584.02" traveltime="24.60" density="39.17" occupancy="19.58" waitingTime="0.00" speed="10.10" departed="7" arrived="0" entered="17" left="20" laneChangedFrom="0" laneChangedTo="0"/>
        <edge id="2o" sampledSeconds="708.19" traveltime="47.12" density="24.15" occupancy="12.08" waitingTime="0.00" speed="10.37" departed="0" arrived="0" entered="13" left="17" laneChangedFrom="0" laneChangedTo="0"/>
        <edge id="2si" sampledSeconds="766.95" traveltime="41.68" density="53.90" occupancy="8.98" waitingTime="303.00" speed="5.69" departed="0" arrived="0" entered="21" left="9" laneChangedFrom="0" laneChangedTo="0"/>
        <edge id="3fi" sampledSeconds="589.22" traveltime="24.79" density="39.52" occupancy="19.76" waitingTime="0.00" speed="10.02" departed="11" arrived="9" entered="13" left="14" laneChangedFrom="0" laneChangedTo="0"/>
        <edge id="3o" sampledSeconds="738.55" traveltime="47.09" density="25.19" occupancy="12.60" waitingTime="0.00" speed="10.38" departed="0" arrived="0" entered="16" left="13" laneChangedFrom="0" laneChangedTo="0"/>
        <edge id="3si" sampledSeconds="927.78" traveltime="60.33" density="65.20" occupancy="10.87" waitingTime="522.00" speed="3.93" departed="0" arrived="0" entered="14" left="19" laneChangedFrom="0" laneChangedTo="0"/>
        <edge id="4fi" sampledSeconds="378.83" traveltime="23.81" density="25.41" occupancy="12.70" waitingTime="0.00" speed="10.44" departed="0" arrived="0" entered="14" left="15" laneChangedFrom="0" laneChangedTo="0"/>
        <edge id="4o" sampledSeconds="745.89" traveltime="46.97" density="25.44" occupancy="12.72" waitingTime="0.00" speed="10.40" departed="0" arrived="0" entered="16" left="13" laneChangedFrom="0" laneChangedTo="0"/>
        <edge id="4si" sampledSeconds="855.18" traveltime="52.94" density="60.10" occupancy="10.02" waitingTime="445.00" speed="4.48" departed="0" arrived="0" entered="15" left="22" laneChangedFrom="0" laneChangedTo="0"/>
    </interval>
    <interval begin="660.00" end="720.00" id="dump_60">
        <edge id="1fi" sampledSeconds="494.67" traveltime="24.32" density="33.18" occupancy="16.59" waitingTime="0.00" speed="10.22" departed="5" arrived="0" entered="15" left="21" laneChangedFrom="0" laneChangedTo="0"/>
        <edge id="1o" sampledSeconds="836.31" traveltime="47.04" density="28.52" occupancy="14.26" waitingTime="0.00" speed="10.39" departed="0" arrived="0" entered="15" left="16" laneChangedFrom="0" laneChangedTo="0"/>
        <edge id="1si" sampledSeconds="1608.91" traveltime="92.22" density="113.07" occupancy="18.85" waitingTime="971.00" speed="2.57" departed="0" arrived="0" entered="21" left="23" laneChangedFrom="0" laneChangedTo="0"/>
        <edge id="2fi" sampledSeconds="514.41" traveltime="24.51" density="34.50" occupancy="17.25" waitingTime="0.00" speed="10.14" departed="5" arrived="9" entered="16" left="12" laneChangedFrom="0" laneChangedTo="0"/>
        <edge id="2o" sampledSeconds="808.40" traveltime="47.02" density="27.57" occupancy="13.79" waitingTime="0.00" speed="10.39" departed="0" arrived="0" entered="14" left="16" laneChangedFrom="0" laneChangedTo="0"/>
        <edge id="2si" sampledSeconds="858.21" traveltime="61.59" density="60.31" occupancy="10.05" waitingTime="435.00" speed="3.85" departed="0" arrived="0" entered="12" left="25" laneChangedFrom="0" laneChangedTo="0"/>
        <edge id="3fi" sampledSeconds="584.95" traveltime="24.60" density="39.23" occupancy="19.62" waitingTime="0.00" speed="10.10" departed="8" arrived="12" entered="15" left="12" laneChangedFrom="0" laneChangedTo="0"/>