<?xml version="1.0" encoding="UTF-8"?>

<!-- generated on Thu May 30 15:43:45 2013 by SUMO sumo Version dev-SVN-rUNKNOWN
<?xml version="1.0" encoding="UTF-8"?>

<configuration xmlns:xsi="http://www.w3.org/2001/XMLSchema-instance" xsi:noNamespaceSchemaLocation="http://sumo.sf.net/xsd/sumoConfiguration.xsd">

    <input>
        <net-file value="net.net.xml"/>
        <route-files value="input_routes.rou.xml"/>
        <additional-files value="input_additional.add.xml"/>
    </input>

    <time>
        <begin value="0"/>
        <end value="1000"/>
    </time>

    <report>
        <no-duration-log value="true"/>
        <no-step-log value="true"/>
    </report>

</configuration>
-->

<meandata xmlns:xsi="http://www.w3.org/2001/XMLSchema-instance" xsi:noNamespaceSchemaLocation="http://sumo.sf.net/xsd/meandata_file.xsd">
    <interval begin="0.00" end="900.00" id="dump_900">
        <edge id="1fi" sampledSeconds="5320.83" traveltime="27.57" density="23.79" occupancy="7.14" waitingTime="0.00" speed="9.01" departed="79" arrived="12" entered="118" left="176" laneChangedFrom="0" laneChangedTo="0"/>
        <edge id="1o" sampledSeconds="5877.53" traveltime="47.45" density="13.36" occupancy="4.01" waitingTime="0.00" speed="10.30" departed="0" arrived="0" entered="127" left="118" laneChangedFrom="0" laneChangedTo="0"/>
        <edge id="1si" sampledSeconds="17749.63" traveltime="113.03" density="83.16" occupancy="8.32" waitingTime="10165.00" speed="2.10" departed="0" arrived="0" entered="175" left="134" laneChangedFrom="0" laneChangedTo="0"/>
        <edge id="2fi" sampledSeconds="5959.61" traveltime="27.73" density="26.65" occupancy="7.99" waitingTime="2.00" speed="8.96" departed="80" arrived="54" entered="138" left="157" laneChangedFrom="0" laneChangedTo="0"/>
        <edge id="2o" sampledSeconds="6943.84" traveltime="47.81" density="15.79" occupancy="4.74" waitingTime="0.00" speed="10.22" departed="0" arrived="0" entered="148" left="138" laneChangedFrom="0" laneChangedTo="0"/>
        <edge id="2si" sampledSeconds="7980.84" traveltime="51.52" density="37.39" occupancy="3.74" waitingTime="3456.00" speed="4.60" departed="0" arrived="0" entered="157" left="148" laneChangedFrom="0" laneChangedTo="0"/>
        <edge id="3fi" sampledSeconds="6318.63" traveltime="29.25" density="28.25" occupancy="8.48" waitingTime="5.00" speed="8.50" departed="127" arrived="73" entered="93" left="140" laneChangedFrom="0" laneChangedTo="0"/>
        <edge id="3o" sampledSeconds="4812.55" traveltime="48.30" density="10.94" occupancy="3.28" waitingTime="0.00" speed="10.12" departed="0" arrived="0" entered="107" left="93" laneChangedFrom="0" laneChangedTo="0"/>
        <edge id="3si" sampledSeconds="6620.80" traveltime="47.16" density="31.02" occupancy="3.10" waitingTime="2841.00" speed="5.03" departed="0" arrived="0" entered="140" left="126" laneChangedFrom="0" laneChangedTo="0"/>
        <edge id="4fi" sampledSeconds="3124.93" traveltime="22.77" density="13.97" occupancy="4.19" waitingTime="0.00" speed="10.91" departed="0" arrived="0" entered="136" left="135" laneChangedFrom="0" laneChangedTo="0"/>
        <edge id="4o" sampledSeconds="6577.76" traveltime="46.83" density="14.96" occupancy="4.49" waitingTime="0.00" speed="10.44" departed="0" arrived="0" entered="144" left="136" laneChangedFrom="0" laneChangedTo="0"/>
        <edge id="4si" sampledSeconds="6157.20" traveltime="46.14" density="28.85" occupancy="2.88" waitingTime="2562.00" speed="5.14" departed="0" arrived="0" entered="135" left="119" laneChangedFrom="0" laneChangedTo="0"/>
    </interval>
    <interval begin="900.00" end="1000.00" id="dump_900">
        <edge id="1fi" sampledSeconds="869.31" traveltime="27.94" density="34.98" occupancy="10.49" waitingTime="0.00" speed="8.89" departed="10" arrived="4" entered="20" left="28" laneChangedFrom="0" laneChangedTo="0"/>
        <edge id="1o" sampledSeconds="1111.12" traveltime="48.91" density="22.74" occupancy="6.82" waitingTime="0.00" speed="9.99" departed="0" arrived="0" entered="23" left="20" laneChangedFrom="0" laneChangedTo="0"/>
        <edge id="1si" sampledSeconds="4734.28" traveltime="199.07" density="199.63" occupancy="19.96" waitingTime="2815.00" speed="1.19" departed="0" arrived="0" entered="29" left="19" laneChangedFrom="0" laneChangedTo="0"/>
        <edge id="2fi" sampledSeconds="838.66" traveltime="27.34" density="33.75" occupancy="10.12" waitingTime="0.00" speed="9.09" departed="10" arrived="9" entered="20" left="20" laneChangedFrom="0" laneChangedTo="0"/>
        <edge id="2o" sampledSeconds="943.22" traveltime="46.75" density="19.30" occupancy="5.79" waitingTime="0.00" speed="10.45" departed="0" arrived="0" entered="21" left="20" laneChangedFrom="0" laneChangedTo="0"/>
        <edge id="2si" sampledSeconds="1154.19" traveltime="54.05" density="48.67" occupancy="4.87" waitingTime="550.00" speed="4.39" departed="0" arrived="0" entered="20" left="18" laneChangedFrom="0" laneChangedTo="0"/>
        <edge id="3fi" sampledSeconds="884.67" traveltime="28.01" density="35.60" occupancy="10.68" waitingTime="0.00" speed="8.87" departed="11" arrived="13" entered="19" left="18" laneChangedFrom="0" laneChangedTo="0"/>
        <edge id="3o" sampledSeconds="956.32" traveltime="47.33" density="19.57" occupancy="5.87" waitingTime="0.00" speed="10.32" departed="0" arrived="0" entered="17" left="20" laneChangedFrom="0" laneChangedTo="0"/>
        <edge id="3si" sampledSeconds="843.43" traveltime="48.09" density="35.57" occupancy="3.56" waitingTime="323.00" speed="4.93" departed="0" arrived="0" entered="17" left="25" laneChangedFrom="0" laneChangedTo="0"/>
        <edge id="4fi" sampledSeconds="355.56" traveltime="22.77" density="14.31" occupancy="4.29" waitingTime="0.00" speed="10.91" departed="0" arrived="0" entered="16" left="16" laneChangedFrom="0" laneChangedTo="0"/>
        <edge id="4o" sampledSeconds="750.45" traveltime="47.07" density="15.36" occupancy="4.61" waitingTime="0.00" speed="10.38" departed="0" arrived="0" entered="15" left="16" laneChangedFrom="0" laneChangedTo="0"/>
        <edge id="4si" sampledSeconds="929.02" traveltime="52.98" density="39.17" occupancy="3.92" waitingTime="411.00" speed="4.48" departed="0" arrived="0" entered="16" left="21" laneChangedFrom="0" laneChangedTo="0"/>
    </interval>
</meandata>
