<?xml version="1.0" encoding="UTF-8"?>

<!-- generated on Mon Oct 28 12:45:35 2013 by SUMO sumo Version dev-SVN-r14939
<?xml version="1.0" encoding="UTF-8"?>

<configuration xmlns:xsi="http://www.w3.org/2001/XMLSchema-instance" xsi:noNamespaceSchemaLocation="http://sumo-sim.org/xsd/sumoConfiguration.xsd">

    <input>
        <net-file value="net.net.xml"/>
        <route-files value="input_routes.rou.xml"/>
        <additional-files value="input_additional.add.xml"/>
    </input>

    <time>
        <begin value="0"/>
        <end value="1000"/>
    </time>

    <report>
        <no-duration-log value="true"/>
        <no-step-log value="true"/>
    </report>

</configuration>
-->

<meandata xmlns:xsi="http://www.w3.org/2001/XMLSchema-instance" xsi:noNamespaceSchemaLocation="http://sumo-sim.org/xsd/meandata_file.xsd">
    <interval begin="0.00" end="60.00" id="dump_60">
        <edge id="1fi" sampledSeconds="0.00" departed="0" arrived="0" entered="0" left="0" laneChangedFrom="0" laneChangedTo="0"/>
        <edge id="1o" sampledSeconds="0.00" departed="0" arrived="0" entered="0" left="0" laneChangedFrom="0" laneChangedTo="0"/>
        <edge id="1si" sampledSeconds="0.00" departed="0" arrived="0" entered="0" left="0" laneChangedFrom="0" laneChangedTo="0"/>
        <edge id="2fi" sampledSeconds="0.00" departed="0" arrived="0" entered="0" left="0" laneChangedFrom="0" laneChangedTo="0"/>
        <edge id="2o" sampledSeconds="0.00" departed="0" arrived="0" entered="0" left="0" laneChangedFrom="0" laneChangedTo="0"/>
        <edge id="2si" sampledSeconds="0.00" departed="0" arrived="0" entered="0" left="0" laneChangedFrom="0" laneChangedTo="0"/>
        <edge id="3fi" sampledSeconds="0.00" departed="0" arrived="0" entered="0" left="0" laneChangedFrom="0" laneChangedTo="0"/>
        <edge id="3o" sampledSeconds="0.00" departed="0" arrived="0" entered="0" left="0" laneChangedFrom="0" laneChangedTo="0"/>
        <edge id="3si" sampledSeconds="0.00" departed="0" arrived="0" entered="0" left="0" laneChangedFrom="0" laneChangedTo="0"/>
        <edge id="4fi" sampledSeconds="0.00" departed="0" arrived="0" entered="0" left="0" laneChangedFrom="0" laneChangedTo="0"/>
        <edge id="4o" sampledSeconds="0.00" departed="0" arrived="0" entered="0" left="0" laneChangedFrom="0" laneChangedTo="0"/>
        <edge id="4si" sampledSeconds="0.00" departed="0" arrived="0" entered="0" left="0" laneChangedFrom="0" laneChangedTo="0"/>
    </interval>
    <interval begin="60.00" end="120.00" id="dump_60">
        <edge id="1fi" sampledSeconds="28.00" traveltime="27.97" density="1.88" occupancy="0.94" waitingTime="0.00" speed="8.88" departed="2" arrived="0" entered="0" left="0" laneChangedFrom="0" laneChangedTo="0"/>
        <edge id="1o" sampledSeconds="0.00" departed="0" arrived="0" entered="0" left="0" laneChangedFrom="0" laneChangedTo="0"/>
        <edge id="1si" sampledSeconds="0.00" departed="0" arrived="0" entered="0" left="0" laneChangedFrom="0" laneChangedTo="0"/>
        <edge id="2fi" sampledSeconds="28.00" traveltime="28.24" density="1.88" occupancy="0.94" waitingTime="0.00" speed="8.80" departed="2" arrived="0" entered="0" left="0" laneChangedFrom="0" laneChangedTo="0"/>
        <edge id="2o" sampledSeconds="0.00" departed="0" arrived="0" entered="0" left="0" laneChangedFrom="0" laneChangedTo="0"/>
        <edge id="2si" sampledSeconds="0.00" departed="0" arrived="0" entered="0" left="0" laneChangedFrom="0" laneChangedTo="0"/>
        <edge id="3fi" sampledSeconds="51.00" traveltime="29.08" density="3.42" occupancy="1.71" waitingTime="1.00" speed="8.54" departed="4" arrived="0" entered="0" left="0" laneChangedFrom="0" laneChangedTo="0"/>
        <edge id="3o" sampledSeconds="0.00" departed="0" arrived="0" entered="0" left="0" laneChangedFrom="0" laneChangedTo="0"/>
        <edge id="3si" sampledSeconds="0.00" departed="0" arrived="0" entered="0" left="0" laneChangedFrom="0" laneChangedTo="0"/>
        <edge id="4fi" sampledSeconds="0.00" departed="0" arrived="0" entered="0" left="0" laneChangedFrom="0" laneChangedTo="0"/>
        <edge id="4o" sampledSeconds="0.00" departed="0" arrived="0" entered="0" left="0" laneChangedFrom="0" laneChangedTo="0"/>
        <edge id="4si" sampledSeconds="0.00" departed="0" arrived="0" entered="0" left="0" laneChangedFrom="0" laneChangedTo="0"/>
    </interval>
    <interval begin="120.00" end="180.00" id="dump_60">
        <edge id="1fi" sampledSeconds="155.85" traveltime="25.95" density="10.45" occupancy="5.23" waitingTime="0.00" speed="9.57" departed="6" arrived="0" entered="0" left="6" laneChangedFrom="0" laneChangedTo="0"/>
        <edge id="1o" sampledSeconds="68.81" traveltime="46.71" density="2.35" occupancy="1.17" waitingTime="0.00" speed="10.46" departed="0" arrived="0" entered="3" left="0" laneChangedFrom="0" laneChangedTo="0"/>
        <edge id="1si" sampledSeconds="98.12" traveltime="19.60" density="6.90" occupancy="1.15" waitingTime="0.00" speed="12.10" departed="0" arrived="0" entered="6" left="4" laneChangedFrom="0" laneChangedTo="0"/>
        <edge id="2fi" sampledSeconds="155.63" traveltime="25.95" density="10.44" occupancy="5.22" waitingTime="0.00" speed="9.57" departed="6" arrived="0" entered="0" left="6" laneChangedFrom="0" laneChangedTo="0"/>
        <edge id="2o" sampledSeconds="0.00" departed="0" arrived="0" entered="0" left="0" laneChangedFrom="0" laneChangedTo="0"/>
        <edge id="2si" sampledSeconds="95.08" traveltime="19.28" density="6.68" occupancy="1.11" waitingTime="1.00" speed="12.30" departed="0" arrived="0" entered="6" left="3" laneChangedFrom="0" laneChangedTo="0"/>
        <edge id="3fi" sampledSeconds="311.66" traveltime="26.04" density="20.90" occupancy="10.45" waitingTime="0.00" speed="9.54" departed="12" arrived="0" entered="0" left="12" laneChangedFrom="0" laneChangedTo="0"/>
        <edge id="3o" sampledSeconds="0.00" departed="0" arrived="0" entered="0" left="0" laneChangedFrom="0" laneChangedTo="0"/>
        <edge id="3si" sampledSeconds="317.41" traveltime="35.24" density="22.31" occupancy="3.72" waitingTime="119.00" speed="6.73" departed="0" arrived="0" entered="12" left="0" laneChangedFrom="0" laneChangedTo="0"/>
        <edge id="4fi" sampledSeconds="0.00" departed="0" arrived="0" entered="0" left="0" laneChangedFrom="0" laneChangedTo="0"/>
        <edge id="4o" sampledSeconds="64.61" traveltime="46.92" density="2.20" occupancy="1.10" waitingTime="0.00" speed="10.42" departed="0" arrived="0" entered="4" left="0" laneChangedFrom="0" laneChangedTo="0"/>
        <edge id="4si" sampledSeconds="0.00" departed="0" arrived="0" entered="0" left="0" laneChangedFrom="0" laneChangedTo="0"/>
    </interval>
    <interval begin="180.00" end="240.00" id="dump_60">
        <edge id="1fi" sampledSeconds="229.33" traveltime="25.39" density="15.38" occupancy="7.69" waitingTime="0.00" speed="9.79" departed="6" arrived="0" entered="3" left="9" laneChangedFrom="0" laneChangedTo="0"/>
        <edge id="1o" sampledSeconds="104.39" traveltime="47.41" density="3.56" occupancy="1.78" waitingTime="0.00" speed="10.31" departed="0" arrived="0" entered="5" left="3" laneChangedFrom="0" laneChangedTo="0"/>
        <edge id="1si" sampledSeconds="308.49" traveltime="42.56" density="21.68" occupancy="3.61" waitingTime="125.00" speed="5.57" departed="0" arrived="0" entered="9" left="2" laneChangedFrom="0" laneChangedTo="0"/>
        <edge id="2fi" sampledSeconds="171.12" traveltime="25.25" density="11.48" occupancy="5.74" waitingTime="0.00" speed="9.84" departed="5" arrived="0" entered="5" left="6" laneChangedFrom="0" laneChangedTo="0"/>
        <edge id="2o" sampledSeconds="315.94" traveltime="46.97" density="10.78" occupancy="5.39" waitingTime="0.00" speed="10.40" departed="0" arrived="0" entered="8" left="5" laneChangedFrom="0" laneChangedTo="0"/>
        <edge id="2si" sampledSeconds="308.31" traveltime="50.14" density="21.67" occupancy="3.61" waitingTime="147.00" speed="4.73" departed="0" arrived="0" entered="6" left="6" laneChangedFrom="0" laneChangedTo="0"/>
        <edge id="3fi" sampledSeconds="312.36" traveltime="26.04" density="20.95" occupancy="10.47" waitingTime="0.00" speed="9.54" departed="12" arrived="0" entered="0" left="12" laneChangedFrom="0" laneChangedTo="0"/>
        <edge id="3o" sampledSeconds="0.00" departed="0" arrived="0" entered="0" left="0" laneChangedFrom="0" laneChangedTo="0"/>
        <edge id="3si" sampledSeconds="352.96" traveltime="28.35" density="24.81" occupancy="4.13" waitingTime="71.00" speed="8.37" departed="0" arrived="0" entered="11" left="14" laneChangedFrom="0" laneChangedTo="0"/>
        <edge id="4fi" sampledSeconds="107.70" traveltime="23.82" density="7.22" occupancy="3.61" waitingTime="0.00" speed="10.43" departed="0" arrived="0" entered="8" left="2" laneChangedFrom="0" laneChangedTo="0"/>
        <edge id="4o" sampledSeconds="429.78" traveltime="46.68" density="14.66" occupancy="7.33" waitingTime="0.00" speed="10.47" departed="0" arrived="0" entered="7" left="9" laneChangedFrom="0" laneChangedTo="0"/>
        <edge id="4si" sampledSeconds="28.95" traveltime="19.49" density="2.03" occupancy="0.34" waitingTime="0.00" speed="12.17" departed="0" arrived="0" entered="2" left="0" laneChangedFrom="0" laneChangedTo="0"/>
    </interval>
    <interval begin="240.00" end="300.00" id="dump_60">
        <edge id="1fi" sampledSeconds="254.53" traveltime="24.94" density="17.07" occupancy="8.54" waitingTime="0.00" speed="9.96" departed="6" arrived="0" entered="8" left="6" laneChangedFrom="0" laneChangedTo="0"/>
        <edge id="1o" sampledSeconds="392.11" traveltime="46.90" density="13.37" occupancy="6.69" waitingTime="0.00" speed="10.42" departed="0" arrived="0" entered="4" left="8" laneChangedFrom="0" laneChangedTo="0"/>
        <edge id="1si" sampledSeconds="448.59" traveltime="61.19" density="31.53" occupancy="5.25" waitingTime="218.00" speed="3.88" departed="0" arrived="0" entered="6" left="6" laneChangedFrom="0" laneChangedTo="0"/>
        <edge id="2fi" sampledSeconds="326.19" traveltime="24.97" density="21.88" occupancy="10.94" waitingTime="0.00" speed="9.95" departed="7" arrived="0" entered="4" left="13" laneChangedFrom="0" laneChangedTo="0"/>
        <edge id="2o" sampledSeconds="265.08" traveltime="46.98" density="9.04" occupancy="4.52" waitingTime="0.00" speed="10.40" departed="0" arrived="0" entered="10" left="4" laneChangedFrom="0" laneChangedTo="0"/>
        <edge id="2si" sampledSeconds="422.32" traveltime="34.92" density="29.68" occupancy="4.95" waitingTime="145.00" speed="6.79" departed="0" arrived="0" entered="13" left="3" laneChangedFrom="0" laneChangedTo="0"/>
        <edge id="3fi" sampledSeconds="311.00" traveltime="25.98" density="20.86" occupancy="10.43" waitingTime="0.00" speed="9.57" departed="12" arrived="0" entered="0" left="12" laneChangedFrom="0" laneChangedTo="0"/>
        <edge id="3o" sampledSeconds="104.28" traveltime="46.50" density="3.56" occupancy="1.78" waitingTime="0.00" speed="10.51" departed="0" arrived="0" entered="6" left="0" laneChangedFrom="0" laneChangedTo="0"/>
        <edge id="3si" sampledSeconds="597.47" traveltime="47.20" density="41.99" occupancy="7.00" waitingTime="280.00" speed="5.02" departed="0" arrived="0" entered="13" left="18" laneChangedFrom="0" laneChangedTo="0"/>
        <edge id="4fi" sampledSeconds="164.63" traveltime="23.82" density="11.04" occupancy="5.52" waitingTime="0.00" speed="10.43" departed="0" arrived="0" entered="5" left="9" laneChangedFrom="0" laneChangedTo="0"/>
        <edge id="4o" sampledSeconds="410.22" traveltime="46.89" density="13.99" occupancy="7.00" waitingTime="0.00" speed="10.42" departed="0" arrived="0" entered="15" left="4" laneChangedFrom="0" laneChangedTo="0"/>
        <edge id="4si" sampledSeconds="335.07" traveltime="35.10" density="23.55" occupancy="3.92" waitingTime="128.00" speed="6.76" departed="0" arrived="0" entered="9" left="8" laneChangedFrom="0" laneChangedTo="0"/>
    </interval>
    <interval begin="300.00" end="360.00" id="dump_60">
        <edge id="1fi" sampledSeconds="276.04" traveltime="25.10" density="18.51" occupancy="9.26" waitingTime="0.00" speed="9.90" departed="6" arrived="0" entered="1" left="15" laneChangedFrom="0" laneChangedTo="0"/>
        <edge id="1o" sampledSeconds="277.97" traveltime="46.80" density="9.48" occupancy="4.74" waitingTime="0.00" speed="10.44" departed="0" arrived="0" entered="9" left="1" laneChangedFrom="0" laneChangedTo="0"/>
        <edge id="1si" sampledSeconds="707.71" traveltime="46.88" density="49.74" occupancy="8.29" waitingTime="264.00" speed="5.06" departed="0" arrived="0" entered="15" left="16" laneChangedFrom="0" laneChangedTo="0"/>
        <edge id="2fi" sampledSeconds="386.16" traveltime="24.56" density="25.90" occupancy="12.95" waitingTime="0.00" speed="10.12" departed="6" arrived="2" entered="13" left="11" laneChangedFrom="0" laneChangedTo="0"/>
        <edge id="2o" sampledSeconds="762.10" traveltime="47.05" density="25.99" occupancy="13.00" waitingTime="0.00" speed="10.39" departed="0" arrived="0" entered="14" left="13" laneChangedFrom="0" laneChangedTo="0"/>
        <edge id="2si" sampledSeconds="455.25" traveltime="48.01" density="31.99" occupancy="5.33" waitingTime="207.00" speed="4.94" departed="0" arrived="0" entered="11" left="16" laneChangedFrom="0" laneChangedTo="0"/>
        <edge id="3fi" sampledSeconds="394.65" traveltime="25.29" density="26.47" occupancy="13.23" waitingTime="1.00" speed="9.83" departed="11" arrived="5" entered="7" left="9" laneChangedFrom="0" laneChangedTo="0"/>
        <edge id="3o" sampledSeconds="226.46" traveltime="46.90" density="7.72" occupancy="3.86" waitingTime="0.00" speed="10.42" departed="0" arrived="0" entered="1" left="7" laneChangedFrom="0" laneChangedTo="0"/>
        <edge id="3si" sampledSeconds="530.99" traveltime="56.00" density="37.32" occupancy="6.22" waitingTime="310.00" speed="4.23" departed="0" arrived="0" entered="8" left="0" laneChangedFrom="0" laneChangedTo="0"/>
        <edge id="4fi" sampledSeconds="347.44" traveltime="23.85" density="23.30" occupancy="11.65" waitingTime="0.00" speed="10.42" departed="0" arrived="0" entered="13" left="13" laneChangedFrom="0" laneChangedTo="0"/>
        <edge id="4o" sampledSeconds="628.66" traveltime="46.94" density="21.44" occupancy="10.72" waitingTime="0.00" speed="10.41" departed="0" arrived="0" entered="13" left="13" laneChangedFrom="0" laneChangedTo="0"/>
        <edge id="4si" sampledSeconds="248.91" traveltime="29.42" density="17.49" occupancy="2.92" waitingTime="56.00" speed="8.06" departed="0" arrived="0" entered="13" left="3" laneChangedFrom="0" laneChangedTo="0"/>
    </interval>
    <interval begin="360.00" end="420.00" id="dump_60">
        <edge id="1fi" sampledSeconds="373.17" traveltime="24.78" density="25.03" occupancy="12.51" waitingTime="0.00" speed="10.03" departed="6" arrived="0" entered="9" left="14" laneChangedFrom="0" laneChangedTo="0"/>
        <edge id="1o" sampledSeconds="182.38" traveltime="46.85" density="6.22" occupancy="3.11" waitingTime="0.00" speed="10.43" departed="0" arrived="0" entered="5" left="9" laneChangedFrom="0" laneChangedTo="0"/>
        <edge id="1si" sampledSeconds="751.49" traveltime="63.96" density="52.81" occupancy="8.80" waitingTime="415.00" speed="3.71" departed="0" arrived="0" entered="14" left="6" laneChangedFrom="0" laneChangedTo="0"/>
        <edge id="2fi" sampledSeconds="531.34" traveltime="24.50" density="35.64" occupancy="17.82" waitingTime="0.00" speed="10.14" departed="5" arrived="10" entered="14" left="14" laneChangedFrom="0" laneChangedTo="0"/>
        <edge id="2o" sampledSeconds="696.78" traveltime="46.94" density="23.77" occupancy="11.88" waitingTime="0.00" speed="10.41" departed="0" arrived="0" entered="18" left="15" laneChangedFrom="0" laneChangedTo="0"/>
        <edge id="2si" sampledSeconds="897.19" traveltime="57.31" density="63.05" occupancy="10.51" waitingTime="434.00" speed="4.14" departed="0" arrived="0" entered="14" left="13" laneChangedFrom="0" laneChangedTo="0"/>
        <edge id="3fi" sampledSeconds="402.40" traveltime="25.60" density="26.99" occupancy="13.49" waitingTime="0.00" speed="9.71" departed="12" arrived="2" entered="3" left="15" laneChangedFrom="0" laneChangedTo="0"/>
        <edge id="3o" sampledSeconds="387.28" traveltime="47.24" density="13.21" occupancy="6.60" waitingTime="0.00" speed="10.34" departed="0" arrived="0" entered="9" left="3" laneChangedFrom="0" laneChangedTo="0"/>
        <edge id="3si" sampledSeconds="474.60" traveltime="33.43" density="33.35" occupancy="5.56" waitingTime="128.00" speed="7.09" departed="0" arrived="0" entered="16" left="15" laneChangedFrom="0" laneChangedTo="0"/>
        <edge id="4fi" sampledSeconds="326.36" traveltime="23.74" density="21.89" occupancy="10.94" waitingTime="0.00" speed="10.47" departed="0" arrived="0" entered="17" left="11" laneChangedFrom="0" laneChangedTo="0"/>
        <edge id="4o" sampledSeconds="656.55" traveltime="46.72" density="22.39" occupancy="11.20" waitingTime="0.00" speed="10.46" departed="0" arrived="0" entered="13" left="17" laneChangedFrom="0" laneChangedTo="0"/>
        <edge id="4si" sampledSeconds="469.12" traveltime="33.26" density="32.97" occupancy="5.49" waitingTime="114.00" speed="7.13" departed="0" arrived="0" entered="11" left="15" laneChangedFrom="0" laneChangedTo="0"/>
    </interval>
    <interval begin="420.00" end="480.00" id="dump_60">
        <edge id="1fi" sampledSeconds="259.56" traveltime="24.97" density="17.41" occupancy="8.70" waitingTime="0.00" speed="9.95" departed="6" arrived="0" entered="7" left="7" laneChangedFrom="0" laneChangedTo="0"/>
        <edge id="1o" sampledSeconds="522.80" traveltime="46.80" density="17.83" occupancy="8.92" waitingTime="0.00" speed="10.44" departed="0" arrived="0" entered="11" left="7" laneChangedFrom="0" laneChangedTo="0"/>
        <edge id="1si" sampledSeconds="821.20" traveltime="108.17" density="57.71" occupancy="9.62" waitingTime="394.00" speed="2.19" departed="0" arrived="0" entered="7" left="8" laneChangedFrom="0" laneChangedTo="0"/>
        <edge id="2fi" sampledSeconds="537.26" traveltime="24.35" density="36.03" occupancy="18.02" waitingTime="0.00" speed="10.20" departed="5" arrived="0" entered="18" left="18" laneChangedFrom="0" laneChangedTo="0"/>
        <edge id="2o" sampledSeconds="719.57" traveltime="47.03" density="24.54" occupancy="12.27" waitingTime="0.00" speed="10.39" departed="0" arrived="0" entered="14" left="17" laneChangedFrom="0" laneChangedTo="0"/>
        <edge id="2si" sampledSeconds="545.74" traveltime="33.48" density="38.35" occupancy="6.39" waitingTime="172.00" speed="7.08" departed="0" arrived="0" entered="18" left="9" laneChangedFrom="0" laneChangedTo="0"/>
        <edge id="3fi" sampledSeconds="525.47" traveltime="25.38" density="35.24" occupancy="17.62" waitingTime="0.00" speed="9.79" departed="13" arrived="9" entered="7" left="10" laneChangedFrom="0" laneChangedTo="0"/>
        <edge id="3o" sampledSeconds="320.77" traveltime="47.03" density="10.94" occupancy="5.47" waitingTime="0.00" speed="10.39" departed="0" arrived="0" entered="11" left="7" laneChangedFrom="0" laneChangedTo="0"/>
        <edge id="3si" sampledSeconds="689.23" traveltime="63.92" density="48.44" occupancy="8.07" waitingTime="392.00" speed="3.71" departed="0" arrived="0" entered="10" left="18" laneChangedFrom="0" laneChangedTo="0"/>
        <edge id="4fi" sampledSeconds="307.23" traveltime="23.79" density="20.61" occupancy="10.30" waitingTime="0.00" speed="10.44" departed="0" arrived="0" entered="12" left="12" laneChangedFrom="0" laneChangedTo="0"/>
        <edge id="4o" sampledSeconds="743.80" traveltime="46.87" density="25.37" occupancy="12.68" waitingTime="0.00" speed="10.43" departed="0" arrived="0" entered="17" left="13" laneChangedFrom="0" laneChangedTo="0"/>
        <edge id="4si" sampledSeconds="724.95" traveltime="56.26" density="50.95" occupancy="8.49" waitingTime="379.00" speed="4.22" departed="0" arrived="0" entered="11" left="15" laneChangedFrom="0" laneChangedTo="0"/>
    </interval>
    <interval begin="480.00" end="540.00" id="dump_60">
        <edge id="1fi" sampledSeconds="433.87" traveltime="24.53" density="29.10" occupancy="14.55" waitingTime="0.00" speed="10.13" departed="6" arrived="0" entered="9" left="20" laneChangedFrom="0" laneChangedTo="0"/>
        <edge id="1o" sampledSeconds="412.98" traveltime="46.62" density="14.09" occupancy="7.04" waitingTime="0.00" speed="10.48" departed="0" arrived="0" entered="7" left="9" laneChangedFrom="0" laneChangedTo="0"/>
        <edge id="1si" sampledSeconds="1163.16" traveltime="70.28" density="81.75" occupancy="13.62" waitingTime="518.00" speed="3.37" departed="0" arrived="0" entered="20" left="15" laneChangedFrom="0" laneChangedTo="0"/>
        <edge id="2fi" sampledSeconds="510.27" traveltime="24.46" density="34.22" occupancy="17.11" waitingTime="0.00" speed="10.16" departed="6" arrived="9" entered="14" left="14" laneChangedFrom="0" laneChangedTo="0"/>
        <edge id="2o" sampledSeconds="698.80" traveltime="46.83" density="23.83" occupancy="11.92" waitingTime="0.00" speed="10.44" departed="0" arrived="0" entered="12" left="14" laneChangedFrom="0" laneChangedTo="0"/>
        <edge id="2si" sampledSeconds="758.08" traveltime="54.40" density="53.28" occupancy="8.88" waitingTime="323.00" speed="4.36" departed="0" arrived="0" entered="13" left="20" laneChangedFrom="0" laneChangedTo="0"/>
        <edge id="3fi" sampledSeconds="499.74" traveltime="25.00" density="33.52" occupancy="16.76" waitingTime="0.00" speed="9.94" departed="11" arrived="6" entered="10" left="14" laneChangedFrom="0" laneChangedTo="0"/>
        <edge id="3o" sampledSeconds="292.94" traveltime="46.54" density="9.99" occupancy="5.00" waitingTime="0.00" speed="10.50" departed="0" arrived="0" entered="5" left="10" laneChangedFrom="0" laneChangedTo="0"/>
        <edge id="3si" sampledSeconds="808.98" traveltime="54.50" density="56.85" occupancy="9.48" waitingTime="456.00" speed="4.35" departed="0" arrived="0" entered="14" left="0" laneChangedFrom="0" laneChangedTo="0"/>
        <edge id="4fi" sampledSeconds="411.19" traveltime="23.78" density="27.58" occupancy="13.79" waitingTime="0.00" speed="10.45" departed="0" arrived="0" entered="14" left="20" laneChangedFrom="0" laneChangedTo="0"/>
        <edge id="4o" sampledSeconds="673.05" traveltime="46.91" density="22.96" occupancy="11.48" waitingTime="0.00" speed="10.42" departed="0" arrived="0" entered="15" left="13" laneChangedFrom="0" laneChangedTo="0"/>
        <edge id="4si" sampledSeconds="778.27" traveltime="51.18" density="54.70" occupancy="9.12" waitingTime="385.00" speed="4.63" departed="0" arrived="0" entered="21" left="3" laneChangedFrom="0" laneChangedTo="0"/>
    </interval>
    <interval begin="540.00" end="600.00" id="dump_60">
        <edge id="1fi" sampledSeconds="345.81" traveltime="24.49" density="23.19" occupancy="11.60" waitingTime="0.00" speed="10.15" departed="5" arrived="0" entered="12" left="14" laneChangedFrom="0" laneChangedTo="0"/>
        <edge id="1o" sampledSeconds="656.33" traveltime="46.87" density="22.39" occupancy="11.19" waitingTime="0.00" speed="10.43" departed="0" arrived="0" entered="18" left="12" laneChangedFrom="0" laneChangedTo="0"/>
        <edge id="1si" sampledSeconds="1513.45" traveltime="101.29" density="106.36" occupancy="17.73" waitingTime="900.00" speed="2.34" departed="0" arrived="0" entered="14" left="13" laneChangedFrom="0" laneChangedTo="0"/>
        <edge id="2fi" sampledSeconds="487.37" traveltime="24.59" density="32.69" occupancy="16.34" waitingTime="0.00" speed="10.10" departed="7" arrived="8" entered="12" left="12" laneChangedFrom="0" laneChangedTo="0"/>
        <edge id="2o" sampledSeconds="652.09" traveltime="46.78" density="22.24" occupancy="11.12" waitingTime="0.00" speed="10.45" departed="0" arrived="0" entered="18" left="13" laneChangedFrom="0" laneChangedTo="0"/>
        <edge id="2si" sampledSeconds="1047.45" traveltime="70.20" density="73.61" occupancy="12.27" waitingTime="590.00" speed="3.38" departed="0" arrived="0" entered="13" left="13" laneChangedFrom="0" laneChangedTo="0"/>
        <edge id="3fi" sampledSeconds="464.23" traveltime="25.08" density="31.14" occupancy="15.57" waitingTime="0.00" speed="9.91" departed="10" arrived="1" entered="8" left="16" laneChangedFrom="0" laneChangedTo="0"/>
        <edge id="3o" sampledSeconds="603.24" traveltime="46.77" density="20.58" occupancy="10.29" waitingTime="0.00" speed="10.45" departed="0" arrived="0" entered="15" left="9" laneChangedFrom="0" laneChangedTo="0"/>
        <edge id="3si" sampledSeconds="628.98" traveltime="40.32" density="44.20" occupancy="7.37" waitingTime="201.00" speed="5.88" departed="0" arrived="0" entered="16" left="22" laneChangedFrom="0" laneChangedTo="0"/>
        <edge id="4fi" sampledSeconds="367.37" traveltime="23.84" density="24.64" occupancy="12.32" waitingTime="0.00" speed="10.42" departed="0" arrived="0" entered="19" left="12" laneChangedFrom="0" laneChangedTo="0"/>
        <edge id="4o" sampledSeconds="802.53" traveltime="47.00" density="27.37" occupancy="13.69" waitingTime="0.00" speed="10.40" departed="0" arrived="0" entered="14" left="20" laneChangedFrom="0" laneChangedTo="0"/>
        <edge id="4si" sampledSeconds="710.85" traveltime="42.83" density="49.96" occupancy="8.33" waitingTime="260.00" speed="5.54" departed="0" arrived="0" entered="12" left="22" laneChangedFrom="0" laneChangedTo="0"/>
    </interval>
    <interval begin="600.00" end="660.00" id="dump_60">
        <edge id="1fi" sampledSeconds="550.41" traveltime="24.22" density="36.92" occupancy="18.46" waitingTime="1.00" speed="10.26" departed="6" arrived="4" entered="17" left="16" laneChangedFrom="0" laneChangedTo="0"/>
        <edge id="1o" sampledSeconds="699.18" traveltime="46.82" density="23.85" occupancy="11.92" waitingTime="0.00" speed="10.44" departed="0" arrived="0" entered="13" left="17" laneChangedFrom="0" laneChangedTo="0"/>
        <edge id="1si" sampledSeconds="1458.22" traveltime="100.25" density="102.48" occupancy="17.08" waitingTime="703.00" speed="2.37" departed="0" arrived="0" entered="16" left="7" laneChangedFrom="0" laneChangedTo="0"/>
        <edge id="2fi" sampledSeconds="548.85" traveltime="24.65" density="36.81" occupancy="18.41" waitingTime="0.00" speed="10.08" departed="7" arrived="0" entered="15" left="19" laneChangedFrom="0" laneChangedTo="0"/>
        <edge id="2o" sampledSeconds="643.26" traveltime="47.56" density="21.94" occupancy="10.97" waitingTime="0.00" speed="10.27" departed="0" arrived="0" entered="12" left="14" laneChangedFrom="0" laneChangedTo="0"/>
        <edge id="2si" sampledSeconds="617.59" traveltime="36.06" density="43.40" occupancy="7.23" waitingTime="220.00" speed="6.58" departed="0" arrived="0" entered="19" left="11" laneChangedFrom="0" laneChangedTo="0"/>
        <edge id="3fi" sampledSeconds="567.92" traveltime="24.54" density="38.09" occupancy="19.04" waitingTime="0.00" speed="10.13" departed="8" arrived="9" entered="16" left="13" laneChangedFrom="0" laneChangedTo="0"/>
        <edge id="3o" sampledSeconds="687.22" traveltime="46.85" density="23.44" occupancy="11.72" waitingTime="0.00" speed="10.43" departed="0" arrived="0" entered="15" left="15" laneChangedFrom="0" laneChangedTo="0"/>
        <edge id="3si" sampledSeconds="853.04" traveltime="66.84" density="59.95" occupancy="9.99" waitingTime="474.00" speed="3.55" departed="0" arrived="0" entered="13" left="17" laneChangedFrom="0" laneChangedTo="0"/>
        <edge id="4fi" sampledSeconds="358.88" traveltime="23.84" density="24.07" occupancy="12.03" waitingTime="0.00" speed="10.42" departed="0" arrived="0" entered="14" left="14" laneChangedFrom="0" laneChangedTo="0"/>
        <edge id="4o" sampledSeconds="737.65" traveltime="46.87" density="25.16" occupancy="12.58" waitingTime="0.00" speed="10.43" departed="0" arrived="0" entered="17" left="13" laneChangedFrom="0" laneChangedTo="0"/>
        <edge id="4si" sampledSeconds="1026.48" traveltime="65.82" density="72.14" occupancy="12.02" waitingTime="538.00" speed="3.60" departed="0" arrived="0" entered="14" left="20" laneChangedFrom="0" laneChangedTo="0"/>
    </interval>
    <interval begin="660.00" end="720.00" id="dump_60">
        <edge id="1fi" sampledSeconds="507.02" traveltime="24.46" density="34.01" occupancy="17.00" waitingTime="0.00" speed="10.16" departed="7" arrived="0" entered="14" left="21" laneChangedFrom="0" laneChangedTo="0"/>
        <edge id="1o" sampledSeconds="752.82" traveltime="46.94" density="25.68" occupancy="12.84" waitingTime="0.00" speed="10.41" departed="0" arrived="0" entered="14" left="14" laneChangedFrom="0" laneChangedTo="0"/>
        <edge id="1si" sampledSeconds="1742.45" traveltime="92.77" density="122.46" occupancy="20.41" waitingTime="959.00" speed="2.56" departed="0" arrived="0" entered="21" left="27" laneChangedFrom="0" laneChangedTo="0"/>
        <edge id="2fi" sampledSeconds="460.03" traveltime="24.46" density="30.85" occupancy="15.43" waitingTime="0.00" speed="10.16" departed="6" arrived="8" entered="15" left="12" laneChangedFrom="0" laneChangedTo="0"/>
        <edge id="2o" sampledSeconds="743.83" traveltime="46.70" density="25.37" occupancy="12.69" waitingTime="0.00" speed="10.46" departed="0" arrived="0" entered="14" left="15" laneChangedFrom="0" laneChangedTo="0"/>
        <edge id="2si" sampledSeconds="728.19" traveltime="56.86" density="51.18" occupancy="8.53" waitingTime="354.00" speed="4.17" departed="0" arrived="0" entered="12" left="22" laneChangedFrom="0" laneChangedTo="0"/>
        <edge id="3fi" sampledSeconds="575.33" traveltime="24.91" density="38.59" occupancy="19.29" waitingTime="0.00" speed="9.98" departed="11" arrived="13" entered="11" left="11" laneChangedFrom="0" laneChangedTo="0"/>