<?xml version="1.0" encoding="UTF-8"?>

<!-- generated on Fri Nov 22 08:05:36 2013 by SUMO sumo Version dev-SVN-r15186
<?xml version="1.0" encoding="UTF-8"?>

<configuration xmlns:xsi="http://www.w3.org/2001/XMLSchema-instance" xsi:noNamespaceSchemaLocation="http://sumo-sim.org/xsd/sumoConfiguration.xsd">

    <input>
        <net-file value="net.net.xml"/>
        <route-files value="input_routes.rou.xml"/>
        <additional-files value="input_additional.add.xml"/>
    </input>

    <time>
        <begin value="0"/>
        <end value="1000"/>
    </time>

    <report>
        <no-duration-log value="true"/>
        <no-step-log value="true"/>
    </report>

</configuration>
-->

<meandata xmlns:xsi="http://www.w3.org/2001/XMLSchema-instance" xsi:noNamespaceSchemaLocation="http://sumo-sim.org/xsd/meandata_file.xsd">
    <interval begin="0.00" end="60.00" id="dump_60">
        <edge id="1fi" sampledSeconds="0.00" departed="0" arrived="0" entered="0" left="0" laneChangedFrom="0" laneChangedTo="0"/>
        <edge id="1o" sampledSeconds="0.00" departed="0" arrived="0" entered="0" left="0" laneChangedFrom="0" laneChangedTo="0"/>
        <edge id="1si" sampledSeconds="0.00" departed="0" arrived="0" entered="0" left="0" laneChangedFrom="0" laneChangedTo="0"/>
        <edge id="2fi" sampledSeconds="0.00" departed="0" arrived="0" entered="0" left="0" laneChangedFrom="0" laneChangedTo="0"/>
        <edge id="2o" sampledSeconds="0.00" departed="0" arrived="0" entered="0" left="0" laneChangedFrom="0" laneChangedTo="0"/>
        <edge id="2si" sampledSeconds="0.00" departed="0" arrived="0" entered="0" left="0" laneChangedFrom="0" laneChangedTo="0"/>
        <edge id="3fi" sampledSeconds="0.00" departed="0" arrived="0" entered="0" left="0" laneChangedFrom="0" laneChangedTo="0"/>
        <edge id="3o" sampledSeconds="0.00" departed="0" arrived="0" entered="0" left="0" laneChangedFrom="0" laneChangedTo="0"/>
        <edge id="3si" sampledSeconds="0.00" departed="0" arrived="0" entered="0" left="0" laneChangedFrom="0" laneChangedTo="0"/>
        <edge id="4fi" sampledSeconds="0.00" departed="0" arrived="0" entered="0" left="0" laneChangedFrom="0" laneChangedTo="0"/>
        <edge id="4o" sampledSeconds="0.00" departed="0" arrived="0" entered="0" left="0" laneChangedFrom="0" laneChangedTo="0"/>
        <edge id="4si" sampledSeconds="0.00" departed="0" arrived="0" entered="0" left="0" laneChangedFrom="0" laneChangedTo="0"/>
    </interval>
    <interval begin="60.00" end="120.00" id="dump_60">
        <edge id="1fi" sampledSeconds="28.00" traveltime="27.97" density="1.88" occupancy="0.94" waitingTime="0.00" speed="8.88" departed="2" arrived="0" entered="0" left="0" laneChangedFrom="0" laneChangedTo="0"/>
        <edge id="1o" sampledSeconds="0.00" departed="0" arrived="0" entered="0" left="0" laneChangedFrom="0" laneChangedTo="0"/>
        <edge id="1si" sampledSeconds="0.00" departed="0" arrived="0" entered="0" left="0" laneChangedFrom="0" laneChangedTo="0"/>
        <edge id="2fi" sampledSeconds="28.00" traveltime="28.24" density="1.88" occupancy="0.94" waitingTime="0.00" speed="8.80" departed="2" arrived="0" entered="0" left="0" laneChangedFrom="0" laneChangedTo="0"/>
        <edge id="2o" sampledSeconds="0.00" departed="0" arrived="0" entered="0" left="0" laneChangedFrom="0" laneChangedTo="0"/>
        <edge id="2si" sampledSeconds="0.00" departed="0" arrived="0" entered="0" left="0" laneChangedFrom="0" laneChangedTo="0"/>
        <edge id="3fi" sampledSeconds="51.00" traveltime="29.08" density="3.42" occupancy="1.71" waitingTime="1.00" speed="8.54" departed="4" arrived="0" entered="0" left="0" laneChangedFrom="0" laneChangedTo="0"/>
        <edge id="3o" sampledSeconds="0.00" departed="0" arrived="0" entered="0" left="0" laneChangedFrom="0" laneChangedTo="0"/>
        <edge id="3si" sampledSeconds="0.00" departed="0" arrived="0" entered="0" left="0" laneChangedFrom="0" laneChangedTo="0"/>
        <edge id="4fi" sampledSeconds="0.00" departed="0" arrived="0" entered="0" left="0" laneChangedFrom="0" laneChangedTo="0"/>
        <edge id="4o" sampledSeconds="0.00" departed="0" arrived="0" entered="0" left="0" laneChangedFrom="0" laneChangedTo="0"/>
        <edge id="4si" sampledSeconds="0.00" departed="0" arrived="0" entered="0" left="0" laneChangedFrom="0" laneChangedTo="0"/>
    </interval>
    <interval begin="120.00" end="180.00" id="dump_60">
        <edge id="1fi" sampledSeconds="155.85" traveltime="25.95" density="10.45" occupancy="5.23" waitingTime="0.00" speed="9.57" departed="6" arrived="0" entered="0" left="6" laneChangedFrom="0" laneChangedTo="0"/>
        <edge id="1o" sampledSeconds="68.81" traveltime="46.71" density="2.35" occupancy="1.17" waitingTime="0.00" speed="10.46" departed="0" arrived="0" entered="3" left="0" laneChangedFrom="0" laneChangedTo="0"/>
        <edge id="1si" sampledSeconds="98.12" traveltime="19.60" density="6.90" occupancy="1.15" waitingTime="0.00" speed="12.10" departed="0" arrived="0" entered="6" left="4" laneChangedFrom="0" laneChangedTo="0"/>
        <edge id="2fi" sampledSeconds="155.63" traveltime="25.95" density="10.44" occupancy="5.22" waitingTime="0.00" speed="9.57" departed="6" arrived="0" entered="0" left="6" laneChangedFrom="0" laneChangedTo="0"/>
        <edge id="2o" sampledSeconds="0.00" departed="0" arrived="0" entered="0" left="0" laneChangedFrom="0" laneChangedTo="0"/>
        <edge id="2si" sampledSeconds="95.08" traveltime="19.28" density="6.68" occupancy="1.11" waitingTime="1.00" speed="12.30" departed="0" arrived="0" entered="6" left="3" laneChangedFrom="0" laneChangedTo="0"/>
        <edge id="3fi" sampledSeconds="311.66" traveltime="26.04" density="20.90" occupancy="10.45" waitingTime="0.00" speed="9.54" departed="12" arrived="0" entered="0" left="12" laneChangedFrom="0" laneChangedTo="0"/>
        <edge id="3o" sampledSeconds="0.00" departed="0" arrived="0" entered="0" left="0" laneChangedFrom="0" laneChangedTo="0"/>
        <edge id="3si" sampledSeconds="317.41" traveltime="35.24" density="22.31" occupancy="3.72" waitingTime="119.00" speed="6.73" departed="0" arrived="0" entered="12" left="0" laneChangedFrom="0" laneChangedTo="0"/>
        <edge id="4fi" sampledSeconds="0.00" departed="0" arrived="0" entered="0" left="0" laneChangedFrom="0" laneChangedTo="0"/>
        <edge id="4o" sampledSeconds="64.61" traveltime="46.92" density="2.20" occupancy="1.10" waitingTime="0.00" speed="10.42" departed="0" arrived="0" entered="4" left="0" laneChangedFrom="0" laneChangedTo="0"/>
        <edge id="4si" sampledSeconds="0.00" departed="0" arrived="0" entered="0" left="0" laneChangedFrom="0" laneChangedTo="0"/>
    </interval>
    <interval begin="180.00" end="240.00" id="dump_60">
        <edge id="1fi" sampledSeconds="229.33" traveltime="25.39" density="15.38" occupancy="7.69" waitingTime="0.00" speed="9.79" departed="6" arrived="0" entered="3" left="9" laneChangedFrom="0" laneChangedTo="0"/>
        <edge id="1o" sampledSeconds="104.39" traveltime="47.41" density="3.56" occupancy="1.78" waitingTime="0.00" speed="10.31" departed="0" arrived="0" entered="5" left="3" laneChangedFrom="0" laneChangedTo="0"/>
        <edge id="1si" sampledSeconds="308.49" traveltime="42.36" density="21.68" occupancy="3.61" waitingTime="116.00" speed="5.60" departed="0" arrived="0" entered="9" left="2" laneChangedFrom="0" laneChangedTo="0"/>
        <edge id="2fi" sampledSeconds="171.12" traveltime="25.25" density="11.48" occupancy="5.74" waitingTime="0.00" speed="9.84" departed="5" arrived="0" entered="5" left="6" laneChangedFrom="0" laneChangedTo="0"/>
        <edge id="2o" sampledSeconds="315.94" traveltime="46.97" density="10.78" occupancy="5.39" waitingTime="0.00" speed="10.40" departed="0" arrived="0" entered="8" left="5" laneChangedFrom="0" laneChangedTo="0"/>
        <edge id="2si" sampledSeconds="308.31" traveltime="50.14" density="21.67" occupancy="3.61" waitingTime="147.00" speed="4.73" departed="0" arrived="0" entered="6" left="6" laneChangedFrom="0" laneChangedTo="0"/>
        <edge id="3fi" sampledSeconds="312.36" traveltime="26.04" density="20.95" occupancy="10.47" waitingTime="0.00" speed="9.54" departed="12" arrived="0" entered="0" left="12" laneChangedFrom="0" laneChangedTo="0"/>
        <edge id="3o" sampledSeconds="0.00" departed="0" arrived="0" entered="0" left="0" laneChangedFrom="0" laneChangedTo="0"/>
        <edge id="3si" sampledSeconds="352.96" traveltime="28.35" density="24.81" occupancy="4.13" waitingTime="71.00" speed="8.37" departed="0" arrived="0" entered="11" left="14" laneChangedFrom="0" laneChangedTo="0"/>
        <edge id="4fi" sampledSeconds="107.70" traveltime="23.82" density="7.22" occupancy="3.61" waitingTime="0.00" speed="10.43" departed="0" arrived="0" entered="8" left="2" laneChangedFrom="0" laneChangedTo="0"/>
        <edge id="4o" sampledSeconds="429.78" traveltime="46.68" density="14.66" occupancy="7.33" waitingTime="0.00" speed="10.47" departed="0" arrived="0" entered="7" left="9" laneChangedFrom="0" laneChangedTo="0"/>
        <edge id="4si" sampledSeconds="28.95" traveltime="19.49" density="2.03" occupancy="0.34" waitingTime="0.00" speed="12.17" departed="0" arrived="0" entered="2" left="0" laneChangedFrom="0" laneChangedTo="0"/>
    </interval>
    <interval begin="240.00" end="300.00" id="dump_60">
        <edge id="1fi" sampledSeconds="254.47" traveltime="25.02" density="17.07" occupancy="8.53" waitingTime="0.00" speed="9.93" departed="6" arrived="0" entered="8" left="6" laneChangedFrom="0" laneChangedTo="0"/>
        <edge id="1o" sampledSeconds="392.40" traveltime="46.95" density="13.38" occupancy="6.69" waitingTime="0.00" speed="10.41" departed="0" arrived="0" entered="4" left="8" laneChangedFrom="0" laneChangedTo="0"/>
        <edge id="1si" sampledSeconds="362.39" traveltime="47.29" density="25.47" occupancy="4.24" waitingTime="135.00" speed="5.01" departed="0" arrived="0" entered="6" left="8" laneChangedFrom="0" laneChangedTo="0"/>
        <edge id="2fi" sampledSeconds="326.23" traveltime="24.93" density="21.88" occupancy="10.94" waitingTime="0.00" speed="9.97" departed="7" arrived="0" entered="4" left="13" laneChangedFrom="0" laneChangedTo="0"/>
        <edge id="2o" sampledSeconds="265.62" traveltime="46.97" density="9.06" occupancy="4.53" waitingTime="0.00" speed="10.40" departed="0" arrived="0" entered="10" left="4" laneChangedFrom="0" laneChangedTo="0"/>
        <edge id="2si" sampledSeconds="422.30" traveltime="34.87" density="29.68" occupancy="4.95" waitingTime="145.00" speed="6.80" departed="0" arrived="0" entered="13" left="3" laneChangedFrom="0" laneChangedTo="0"/>
        <edge id="3fi" sampledSeconds="309.97" traveltime="25.90" density="20.79" occupancy="10.39" waitingTime="0.00" speed="9.60" departed="12" arrived="0" entered="0" left="12" laneChangedFrom="0" laneChangedTo="0"/>
        <edge id="3o" sampledSeconds="105.20" traveltime="46.61" density="3.59" occupancy="1.79" waitingTime="0.00" speed="10.48" departed="0" arrived="0" entered="6" left="0" laneChangedFrom="0" laneChangedTo="0"/>
        <edge id="3si" sampledSeconds="597.87" traveltime="47.08" density="42.02" occupancy="7.00" waitingTime="279.00" speed="5.04" departed="0" arrived="0" entered="13" left="18" laneChangedFrom="0" laneChangedTo="0"/>
        <edge id="4fi" sampledSeconds="164.38" traveltime="23.82" density="11.02" occupancy="5.51" waitingTime="0.00" speed="10.43" departed="0" arrived="0" entered="5" left="9" laneChangedFrom="0" laneChangedTo="0"/>
        <edge id="4o" sampledSeconds="497.21" traveltime="46.82" density="16.96" occupancy="8.48" waitingTime="0.00" speed="10.44" departed="0" arrived="0" entered="17" left="4" laneChangedFrom="0" laneChangedTo="0"/>
        <edge id="4si" sampledSeconds="334.13" traveltime="34.95" density="23.48" occupancy="3.91" waitingTime="113.00" speed="6.78" departed="0" arrived="0" entered="9" left="7" laneChangedFrom="0" laneChangedTo="0"/>
    </interval>
    <interval begin="300.00" end="360.00" id="dump_60">
        <edge id="1fi" sampledSeconds="275.80" traveltime="25.00" density="18.50" occupancy="9.25" waitingTime="0.00" speed="9.94" departed="6" arrived="0" entered="1" left="15" laneChangedFrom="0" laneChangedTo="0"/>
        <edge id="1o" sampledSeconds="278.70" traveltime="46.73" density="9.51" occupancy="4.75" waitingTime="0.00" speed="10.46" departed="0" arrived="0" entered="9" left="1" laneChangedFrom="0" laneChangedTo="0"/>
        <edge id="1si" sampledSeconds="565.58" traveltime="36.35" density="39.75" occupancy="6.62" waitingTime="161.00" speed="6.52" departed="0" arrived="0" entered="15" left="18" laneChangedFrom="0" laneChangedTo="0"/>
        <edge id="2fi" sampledSeconds="397.46" traveltime="24.55" density="26.66" occupancy="13.33" waitingTime="0.00" speed="10.12" departed="6" arrived="2" entered="13" left="12" laneChangedFrom="0" laneChangedTo="0"/>
        <edge id="2o" sampledSeconds="758.96" traveltime="46.98" density="25.89" occupancy="12.94" waitingTime="0.00" speed="10.40" departed="0" arrived="0" entered="14" left="13" laneChangedFrom="0" laneChangedTo="0"/>
        <edge id="2si" sampledSeconds="454.90" traveltime="47.99" density="31.97" occupancy="5.33" waitingTime="207.00" speed="4.94" departed="0" arrived="0" entered="11" left="16" laneChangedFrom="0" laneChangedTo="0"/>
        <edge id="3fi" sampledSeconds="390.04" traveltime="25.26" density="26.16" occupancy="13.08" waitingTime="0.00" speed="9.84" departed="11" arrived="5" entered="7" left="8" laneChangedFrom="0" laneChangedTo="0"/>
        <edge id="3o" sampledSeconds="225.91" traveltime="46.92" density="7.71" occupancy="3.85" waitingTime="0.00" speed="10.41" departed="0" arrived="0" entered="1" left="7" laneChangedFrom="0" laneChangedTo="0"/>
        <edge id="3si" sampledSeconds="530.91" traveltime="56.24" density="37.31" occupancy="6.22" waitingTime="307.00" speed="4.22" departed="0" arrived="0" entered="8" left="0" laneChangedFrom="0" laneChangedTo="0"/>
        <edge id="4fi" sampledSeconds="395.48" traveltime="23.79" density="26.52" occupancy="13.26" waitingTime="0.00" speed="10.44" departed="0" arrived="0" entered="15" left="15" laneChangedFrom="0" laneChangedTo="0"/>
        <edge id="4o" sampledSeconds="659.59" traveltime="46.81" density="22.50" occupancy="11.25" waitingTime="0.00" speed="10.44" departed="0" arrived="0" entered="15" left="15" laneChangedFrom="0" laneChangedTo="0"/>
        <edge id="4si" sampledSeconds="311.99" traveltime="30.71" density="21.93" occupancy="3.65" waitingTime="71.00" speed="7.72" departed="0" arrived="0" entered="15" left="4" laneChangedFrom="0" laneChangedTo="0"/>
    </interval>
    <interval begin="360.00" end="420.00" id="dump_60">
        <edge id="1fi" sampledSeconds="375.60" traveltime="24.81" density="25.19" occupancy="12.60" waitingTime="0.00" speed="10.01" departed="6" arrived="0" entered="9" left="15" laneChangedFrom="0" laneChangedTo="0"/>
        <edge id="1o" sampledSeconds="179.64" traveltime="47.08" density="6.13" occupancy="3.06" waitingTime="0.00" speed="10.38" departed="0" arrived="0" entered="5" left="9" laneChangedFrom="0" laneChangedTo="0"/>
        <edge id="1si" sampledSeconds="522.93" traveltime="41.28" density="36.75" occupancy="6.13" waitingTime="214.00" speed="5.75" departed="0" arrived="0" entered="15" left="6" laneChangedFrom="0" laneChangedTo="0"/>
        <edge id="2fi" sampledSeconds="515.18" traveltime="24.39" density="34.55" occupancy="17.28" waitingTime="0.00" speed="10.19" departed="5" arrived="9" entered="14" left="13" laneChangedFrom="0" laneChangedTo="0"/>
        <edge id="2o" sampledSeconds="661.97" traveltime="46.93" density="22.58" occupancy="11.29" waitingTime="0.00" speed="10.41" departed="0" arrived="0" entered="17" left="14" laneChangedFrom="0" laneChangedTo="0"/>
        <edge id="2si" sampledSeconds="906.48" traveltime="58.96" density="63.71" occupancy="10.62" waitingTime="443.00" speed="4.02" departed="0" arrived="0" entered="14" left="13" laneChangedFrom="0" laneChangedTo="0"/>
        <edge id="3fi" sampledSeconds="404.76" traveltime="25.43" density="27.15" occupancy="13.57" waitingTime="0.00" speed="9.77" departed="11" arrived="2" entered="4" left="16" laneChangedFrom="0" laneChangedTo="0"/>
        <edge id="3o" sampledSeconds="385.23" traveltime="46.67" density="13.14" occupancy="6.57" waitingTime="0.00" speed="10.47" departed="0" arrived="0" entered="9" left="4" laneChangedFrom="0" laneChangedTo="0"/>
        <edge id="3si" sampledSeconds="466.79" traveltime="32.83" density="32.81" occupancy="5.47" waitingTime="118.00" speed="7.22" departed="0" arrived="0" entered="16" left="15" laneChangedFrom="0" laneChangedTo="0"/>
        <edge id="4fi" sampledSeconds="367.92" traveltime="23.72" density="24.68" occupancy="12.34" waitingTime="0.00" speed="10.48" departed="0" arrived="0" entered="19" left="13" laneChangedFrom="0" laneChangedTo="0"/>
        <edge id="4o" sampledSeconds="726.77" traveltime="46.68" density="24.79" occupancy="12.39" waitingTime="0.00" speed="10.47" departed="0" arrived="0" entered="13" left="19" laneChangedFrom="0" laneChangedTo="0"/>
        <edge id="4si" sampledSeconds="627.32" traveltime="42.68" density="44.09" occupancy="7.35" waitingTime="208.00" speed="5.56" departed="0" arrived="0" entered="13" left="14" laneChangedFrom="0" laneChangedTo="0"/>
    </interval>
    <interval begin="420.00" end="480.00" id="dump_60">
        <edge id="1fi" sampledSeconds="247.91" traveltime="25.07" density="16.63" occupancy="8.31" waitingTime="0.00" speed="9.91" departed="6" arrived="0" entered="6" left="6" laneChangedFrom="0" laneChangedTo="0"/>
        <edge id="1o" sampledSeconds="484.69" traveltime="46.87" density="16.53" occupancy="8.27" waitingTime="0.00" speed="10.43" departed="0" arrived="0" entered="10" left="6" laneChangedFrom="0" laneChangedTo="0"/>
        <edge id="1si" sampledSeconds="618.86" traveltime="83.29" density="43.49" occupancy="7.25" waitingTime="295.00" speed="2.85" departed="0" arrived="0" entered="6" left="7" laneChangedFrom="0" laneChangedTo="0"/>
        <edge id="2fi" sampledSeconds="539.43" traveltime="24.36" density="36.18" occupancy="18.09" waitingTime="0.00" speed="10.20" departed="6" arrived="1" entered="17" left="18" laneChangedFrom="0" laneChangedTo="0"/>
        <edge id="2o" sampledSeconds="654.52" traveltime="46.89" density="22.32" occupancy="11.16" waitingTime="0.00" speed="10.42" departed="0" arrived="0" entered="12" left="17" laneChangedFrom="0" laneChangedTo="0"/>
        <edge id="2si" sampledSeconds="607.24" traveltime="36.39" density="42.68" occupancy="7.11" waitingTime="225.00" speed="6.52" departed="0" arrived="0" entered="18" left="8" laneChangedFrom="0" laneChangedTo="0"/>
        <edge id="3fi" sampledSeconds="511.23" traveltime="25.32" density="34.29" occupancy="17.14" waitingTime="0.00" speed="9.82" departed="14" arrived="9" entered="6" left="9" laneChangedFrom="0" laneChangedTo="0"/>
        <edge id="3o" sampledSeconds="320.61" traveltime="46.89" density="10.94" occupancy="5.47" waitingTime="0.00" speed="10.42" departed="0" arrived="0" entered="11" left="6" laneChangedFrom="0" laneChangedTo="0"/>
        <edge id="3si" sampledSeconds="663.95" traveltime="68.04" density="46.66" occupancy="7.78" waitingTime="393.00" speed="3.49" departed="0" arrived="0" entered="9" left="17" laneChangedFrom="0" laneChangedTo="0"/>
        <edge id="4fi" sampledSeconds="319.33" traveltime="23.88" density="21.42" occupancy="10.71" waitingTime="0.00" speed="10.41" departed="0" arrived="0" entered="13" left="12" laneChangedFrom="0" laneChangedTo="0"/>
        <edge id="4o" sampledSeconds="742.72" traveltime="46.95" density="25.33" occupancy="12.67" waitingTime="0.00" speed="10.41" departed="0" arrived="0" entered="16" left="13" laneChangedFrom="0" laneChangedTo="0"/>
        <edge id="4si" sampledSeconds="1016.10" traveltime="75.38" density="71.41" occupancy="11.90" waitingTime="559.00" speed="3.15" departed="0" arrived="0" entered="11" left="15" laneChangedFrom="0" laneChangedTo="0"/>
    </interval>
    <interval begin="480.00" end="540.00" id="dump_60">
        <edge id="1fi" sampledSeconds="418.82" traveltime="24.44" density="28.09" occupancy="14.05" waitingTime="0.00" speed="10.17" departed="6" arrived="0" entered="9" left="19" laneChangedFrom="0" laneChangedTo="0"/>
        <edge id="1o" sampledSeconds="467.40" traveltime="46.74" density="15.94" occupancy="7.97" waitingTime="0.00" speed="10.46" departed="0" arrived="0" entered="9" left="9" laneChangedFrom="0" laneChangedTo="0"/>
        <edge id="1si" sampledSeconds="917.24" traveltime="57.38" density="64.46" occupancy="10.74" waitingTime="330.00" speed="4.13" departed="0" arrived="0" entered="19" left="15" laneChangedFrom="0" laneChangedTo="0"/>
        <edge id="2fi" sampledSeconds="459.42" traveltime="24.48" density="30.81" occupancy="15.41" waitingTime="0.00" speed="10.15" departed="6" arrived="8" entered="13" left="12" laneChangedFrom="0" laneChangedTo="0"/>
        <edge id="2o" sampledSeconds="733.40" traveltime="46.71" density="25.01" occupancy="12.51" waitingTime="0.00" speed="10.46" departed="0" arrived="0" entered="14" left="13" laneChangedFrom="0" laneChangedTo="0"/>
        <edge id="2si" sampledSeconds="698.71" traveltime="53.96" density="49.10" occupancy="8.18" waitingTime="309.00" speed="4.39" departed="0" arrived="0" entered="12" left="22" laneChangedFrom="0" laneChangedTo="0"/>
        <edge id="3fi" sampledSeconds="521.08" traveltime="24.90" density="34.95" occupancy="17.47" waitingTime="0.00" speed="9.98" departed="12" arrived="6" entered="10" left="15" laneChangedFrom="0" laneChangedTo="0"/>
        <edge id="3o" sampledSeconds="336.51" traveltime="46.90" density="11.48" occupancy="5.74" waitingTime="0.00" speed="10.42" departed="0" arrived="0" entered="5" left="10" laneChangedFrom="0" laneChangedTo="0"/>
        <edge id="3si" sampledSeconds="865.03" traveltime="55.44" density="60.79" occupancy="10.13" waitingTime="501.00" speed="4.28" departed="0" arrived="0" entered="15" left="0" laneChangedFrom="0" laneChangedTo="0"/>
        <edge id="4fi" sampledSeconds="403.09" traveltime="23.76" density="27.03" occupancy="13.52" waitingTime="0.00" speed="10.46" departed="0" arrived="0" entered="13" left="20" laneChangedFrom="0" laneChangedTo="0"/>
        <edge id="4o" sampledSeconds="667.32" traveltime="46.87" density="22.76" occupancy="11.38" waitingTime="0.00" speed="10.43" departed="0" arrived="0" entered="15" left="13" laneChangedFrom="0" laneChangedTo="0"/>
        <edge id="4si" sampledSeconds="1034.78" traveltime="68.71" density="72.72" occupancy="12.12" waitingTime="570.00" speed="3.45" departed="0" arrived="0" entered="20" left="4" laneChangedFrom="0" laneChangedTo="0"/>
    </interval>
    <interval begin="540.00" end="600.00" id="dump_60">
        <edge id="1fi" sampledSeconds="392.08" traveltime="24.37" density="26.30" occupancy="13.15" waitingTime="0.00" speed="10.20" departed="5" arrived="0" entered="14" left="16" laneChangedFrom="0" laneChangedTo="0"/>
        <edge id="1o" sampledSeconds="704.36" traveltime="46.74" density="24.02" occupancy="12.01" waitingTime="0.00" speed="10.45" departed="0" arrived="0" entered="18" left="14" laneChangedFrom="0" laneChangedTo="0"/>
        <edge id="1si" sampledSeconds="1311.92" traveltime="79.36" density="92.20" occupancy="15.37" waitingTime="770.00" speed="2.99" departed="0" arrived="0" entered="16" left="13" laneChangedFrom="0" laneChangedTo="0"/>
        <edge id="2fi" sampledSeconds="510.99" traveltime="24.46" density="34.27" occupancy="17.14" waitingTime="0.00" speed="10.16" departed="6" arrived="9" entered="13" left="13" laneChangedFrom="0" laneChangedTo="0"/>
        <edge id="2o" sampledSeconds="686.15" traveltime="46.91" density="23.40" occupancy="11.70" waitingTime="0.00" speed="10.42" departed="0" arrived="0" entered="18" left="14" laneChangedFrom="0" laneChangedTo="0"/>
        <edge id="2si" sampledSeconds="928.22" traveltime="60.43" density="65.23" occupancy="10.87" waitingTime="480.00" speed="3.92" departed="0" arrived="0" entered="13" left="13" laneChangedFrom="0" laneChangedTo="0"/>
        <edge id="3fi" sampledSeconds="487.23" traveltime="25.04" density="32.68" occupancy="16.34" waitingTime="0.00" speed="9.92" departed="10" arrived="1" entered="8" left="18" laneChangedFrom="0" laneChangedTo="0"/>
        <edge id="3o" sampledSeconds="555.72" traveltime="46.77" density="18.95" occupancy="9.48" waitingTime="0.00" speed="10.45" departed="0" arrived="0" entered="15" left="8" laneChangedFrom="0" laneChangedTo="0"/>
        <edge id="3si" sampledSeconds="637.90" traveltime="37.81" density="44.83" occupancy="7.47" waitingTime="191.00" speed="6.27" departed="0" arrived="0" entered="18" left="24" laneChangedFrom="0" laneChangedTo="0"/>
        <edge id="4fi" sampledSeconds="352.90" traveltime="23.86" density="23.67" occupancy="11.83" waitingTime="0.00" speed="10.41" departed="0" arrived="0" entered="18" left="12" laneChangedFrom="0" laneChangedTo="0"/>
        <edge id="4o" sampledSeconds="781.96" traveltime="46.81" density="26.67" occupancy="13.34" waitingTime="0.00" speed="10.44" departed="0" arrived="0" entered="16" left="18" laneChangedFrom="0" laneChangedTo="0"/>
        <edge id="4si" sampledSeconds="980.07" traveltime="57.83" density="68.88" occupancy="11.48" waitingTime="385.00" speed="4.10" departed="0" arrived="0" entered="13" left="21" laneChangedFrom="0" laneChangedTo="0"/>
    </interval>
    <interval begin="600.00" end="660.00" id="dump_60">
        <edge id="1fi" sampledSeconds="559.43" traveltime="24.65" density="37.52" occupancy="18.76" waitingTime="0.00" speed="10.08" departed="7" arrived="4" entered="17" left="16" laneChangedFrom="0" laneChangedTo="0"/>
        <edge id="1o" sampledSeconds="650.70" traveltime="47.16" density="22.19" occupancy="11.10" waitingTime="0.00" speed="10.36" departed="0" arrived="0" entered="14" left="17" laneChangedFrom="0" laneChangedTo="0"/>
        <edge id="1si" sampledSeconds="1168.66" traveltime="76.80" density="82.13" occupancy="13.69" waitingTime="550.00" speed="3.09" departed="0" arrived="0" entered="15" left="10" laneChangedFrom="0" laneChangedTo="0"/>
        <edge id="2fi" sampledSeconds="524.66" traveltime="24.28" density="35.19" occupancy="17.59" waitingTime="0.00" speed="10.23" departed="6" arrived="0" entered="16" left="19" laneChangedFrom="0" laneChangedTo="0"/>
        <edge id="2o" sampledSeconds="674.03" traveltime="46.82" density="22.99" occupancy="11.49" waitingTime="0.00" speed="10.44" departed="0" arrived="0" entered="14" left="15" laneChangedFrom="0" laneChangedTo="0"/>
        <edge id="2si" sampledSeconds="615.87" traveltime="37.29" density="43.28" occupancy="7.21" waitingTime="214.00" speed="6.36" departed="0" arrived="0" entered="19" left="9" laneChangedFrom="0" laneChangedTo="0"/>
        <edge id="3fi" sampledSeconds="531.10" traveltime="24.40" density="35.62" occupancy="17.81" waitingTime="0.00" speed="10.19" departed="7" arrived="10" entered="16" left="11" laneChangedFrom="0" laneChangedTo="0"/>
        <edge id="3o" sampledSeconds="685.90" traveltime="46.92" density="23.39" occupancy="11.70" waitingTime="0.00" speed="10.42" departed="0" arrived="0" entered="15" left="16" laneChangedFrom="0" laneChangedTo="0"/>
        <edge id="3si" sampledSeconds="857.71" traveltime="66.31" density="60.28" occupancy="10.05" waitingTime="468.00" speed="3.58" departed="0" arrived="0" entered="11" left="19" laneChangedFrom="0" laneChangedTo="0"/>
        <edge id="4fi" sampledSeconds="375.88" traveltime="23.77" density="25.21" occupancy="12.61" waitingTime="0.00" speed="10.45" departed="0" arrived="0" entered="14" left="15" laneChangedFrom="0" laneChangedTo="0"/>
        <edge id="4o" sampledSeconds="794.12" traveltime="46.88" density="27.09" occupancy="13.54" waitingTime="0.00" speed="10.42" departed="0" arrived="0" entered="16" left="14" laneChangedFrom="0" laneChangedTo="0"/>
        <edge id="4si" sampledSeconds="1281.86" traveltime="85.43" density="90.09" occupancy="15.01" waitingTime="745.00" speed="2.78" departed="0" arrived="0" entered="14" left="20" laneChangedFrom="0" laneChangedTo="0"/>
    </interval>
    <interval begin="660.00" end="720.00" id="dump_60">
        <edge id="1fi" sampledSeconds="489.87" traveltime="24.55" density="32.85" occupancy="16.43" waitingTime="0.00" speed="10.12" departed="6" arrived="0" entered="13" left="21" laneChangedFrom="0" laneChangedTo="0"/>
        <edge id="1o" sampledSeconds="720.27" traveltime="47.01" density="24.57" occupancy="12.28" waitingTime="0.00" speed="10.39" departed="0" arrived="0" entered="12" left="13" laneChangedFrom="0" laneChangedTo="0"/>
        <edge id="1si" sampledSeconds="1493.10" traveltime="82.11" density="104.93" occupancy="17.49" waitingTime="753.00" speed="2.89" departed="0" arrived="0" entered="21" left="23" laneChangedFrom="0" laneChangedTo="0"/>
        <edge id="2fi" sampledSeconds="493.95" traveltime="24.06" density="33.13" occupancy="16.56" waitingTime="0.00" speed="10.33" departed="4" arrived="9" entered="17" left="12" laneChangedFrom="0" laneChangedTo="0"/>
        <edge id="2o" sampledSeconds="799.50" traveltime="46.94" density="27.27" occupancy="13.63" waitingTime="0.00" speed="10.41" departed="0" arrived="0" entered="14" left="17" laneChangedFrom="0" laneChangedTo="0"/>
        <edge id="2si" sampledSeconds="697.53" traveltime="53.61" density="49.02" occupancy="8.17" waitingTime="333.00" speed="4.42" departed="0" arrived="0" entered="12" left="22" laneChangedFrom="0" laneChangedTo="0"/>
        <edge id="3fi" sampledSeconds="568.58" traveltime="24.85" density="38.13" occupancy="19.07" waitingTime="0.00" speed="10.00" departed="11" arrived="12" entered="11" left="11" laneChangedFrom="0" laneChangedTo="0"/>