<?xml version="1.0" encoding="UTF-8"?>

<!-- generated on Thu Sep 29 14:14:55 2016 by SUMO Version dev-SVN-r21578
<?xml version="1.0" encoding="UTF-8"?>

<configuration xmlns:xsi="http://www.w3.org/2001/XMLSchema-instance" xsi:noNamespaceSchemaLocation="http://sumo.dlr.de/xsd/sumoConfiguration.xsd">

    <input>
        <net-file value="net.net.xml"/>
        <route-files value="input_routes.rou.xml"/>
        <additional-files value="input_additional.add.xml"/>
    </input>

    <time>
        <begin value="0"/>
        <end value="1000"/>
    </time>

    <report>
        <xml-validation value="never"/>
        <duration-log.disable value="true"/>
        <no-step-log value="true"/>
    </report>

</configuration>
-->

<meandata xmlns:xsi="http://www.w3.org/2001/XMLSchema-instance" xsi:noNamespaceSchemaLocation="http://sumo.dlr.de/xsd/meandata_file.xsd">
    <interval begin="0.00" end="300.00" id="dump_300">
        <edge id="1fi" sampledSeconds="676.57" traveltime="25.53" overlapTraveltime="26.02" density="9.08" occupancy="4.54" waitingTime="0.00" speed="9.74" departed="20" arrived="0" entered="11" left="21" laneChangedFrom="0" laneChangedTo="0"/>
        <edge id="1o" sampledSeconds="567.55" traveltime="47.12" overlapTraveltime="47.64" density="3.87" occupancy="1.94" waitingTime="0.00" speed="10.36" departed="0" arrived="0" entered="12" left="11" laneChangedFrom="0" laneChangedTo="0"/>
        <edge id="1si" sampledSeconds="755.29" traveltime="36.81" overlapTraveltime="38.61" density="10.62" occupancy="1.77" waitingTime="267.00" speed="6.27" departed="0" arrived="0" entered="21" left="14" laneChangedFrom="0" laneChangedTo="0"/>
        <edge id="2fi" sampledSeconds="683.33" traveltime="25.52" overlapTraveltime="25.98" density="9.17" occupancy="4.58" waitingTime="0.00" speed="9.76" departed="20" arrived="0" entered="9" left="25" laneChangedFrom="0" laneChangedTo="0"/>
        <edge id="2o" sampledSeconds="592.27" traveltime="47.18" overlapTraveltime="47.72" density="4.04" occupancy="2.02" waitingTime="0.00" speed="10.35" departed="0" arrived="0" entered="19" left="9" laneChangedFrom="0" laneChangedTo="0"/>
        <edge id="2si" sampledSeconds="833.41" traveltime="35.93" overlapTraveltime="36.61" density="11.71" occupancy="1.95" waitingTime="342.00" speed="6.61" departed="0" arrived="0" entered="25" left="12" laneChangedFrom="0" laneChangedTo="0"/>
        <edge id="3fi" sampledSeconds="986.71" traveltime="26.22" overlapTraveltime="26.69" density="13.24" occupancy="6.62" waitingTime="0.00" speed="9.50" departed="40" arrived="0" entered="0" left="36" laneChangedFrom="0" laneChangedTo="0"/>
        <edge id="3o" sampledSeconds="108.48" traveltime="47.13" overlapTraveltime="47.62" density="0.74" occupancy="0.37" waitingTime="0.00" speed="10.37" departed="0" arrived="0" entered="6" left="0" laneChangedFrom="0" laneChangedTo="0"/>
        <edge id="3si" sampledSeconds="1258.04" traveltime="37.01" overlapTraveltime="37.68" density="17.68" occupancy="2.95" waitingTime="505.00" speed="6.43" departed="0" arrived="0" entered="35" left="32" laneChangedFrom="0" laneChangedTo="0"/>
        <edge id="4fi" sampledSeconds="276.56" traveltime="23.74" overlapTraveltime="24.20" density="3.71" occupancy="1.85" waitingTime="0.00" speed="10.47" departed="0" arrived="0" entered="13" left="11" laneChangedFrom="0" laneChangedTo="0"/>
        <edge id="4o" sampledSeconds="985.96" traveltime="46.93" overlapTraveltime="47.42" density="6.73" occupancy="3.36" waitingTime="0.00" speed="10.41" departed="0" arrived="0" entered="28" left="14" laneChangedFrom="0" laneChangedTo="0"/>
        <edge id="4si" sampledSeconds="354.90" traveltime="30.03" overlapTraveltime="32.47" density="4.99" occupancy="0.83" waitingTime="110.00" speed="7.46" departed="0" arrived="0" entered="11" left="10" laneChangedFrom="0" laneChangedTo="0"/>
    </interval>
    <interval begin="300.00" end="600.00" id="dump_300">
        <edge id="1fi" sampledSeconds="1711.26" traveltime="24.80" overlapTraveltime="25.26" density="22.95" occupancy="11.48" waitingTime="0.00" speed="10.04" departed="29" arrived="0" entered="39" left="71" laneChangedFrom="0" laneChangedTo="0"/>
        <edge id="1o" sampledSeconds="2138.18" traveltime="47.00" overlapTraveltime="47.48" density="14.59" occupancy="7.29" waitingTime="0.00" speed="10.40" departed="0" arrived="0" entered="52" left="39" laneChangedFrom="0" laneChangedTo="0"/>
        <edge id="1si" sampledSeconds="4007.39" traveltime="58.81" overlapTraveltime="60.71" density="56.33" occupancy="9.39" waitingTime="2046.00" speed="3.99" departed="0" arrived="0" entered="71" left="60" laneChangedFrom="0" laneChangedTo="0"/>
        <edge id="2fi" sampledSeconds="2554.97" traveltime="24.48" overlapTraveltime="24.94" density="34.27" occupancy="17.14" waitingTime="0.00" speed="10.16" departed="29" arrived="29" entered="76" left="74" laneChangedFrom="0" laneChangedTo="0"/>
        <edge id="2o" sampledSeconds="3787.50" traveltime="46.93" overlapTraveltime="47.42" density="25.84" occupancy="12.92" waitingTime="0.00" speed="10.41" departed="0" arrived="0" entered="82" left="76" laneChangedFrom="0" laneChangedTo="0"/>
        <edge id="2si" sampledSeconds="3691.98" traveltime="49.35" overlapTraveltime="50.65" density="51.89" occupancy="8.65" waitingTime="1794.00" speed="4.78" departed="0" arrived="0" entered="73" left="76" laneChangedFrom="0" laneChangedTo="0"/>
        <edge id="3fi" sampledSeconds="2366.69" traveltime="25.35" overlapTraveltime="25.83" density="31.75" occupancy="15.87" waitingTime="0.00" speed="9.82" departed="58" arrived="24" entered="38" left="66" laneChangedFrom="0" laneChangedTo="0"/>
        <edge id="3o" sampledSeconds="1908.10" traveltime="47.10" overlapTraveltime="47.67" density="13.02" occupancy="6.51" waitingTime="0.00" speed="10.36" departed="0" arrived="0" entered="43" left="38" laneChangedFrom="0" laneChangedTo="0"/>
        <edge id="3si" sampledSeconds="3013.56" traveltime="45.58" overlapTraveltime="46.59" density="42.36" occupancy="7.06" waitingTime="1496.00" speed="5.20" departed="0" arrived="0" entered="67" left="56" laneChangedFrom="0" laneChangedTo="0"/>
        <edge id="4fi" sampledSeconds="1839.12" traveltime="23.87" overlapTraveltime="24.33" density="24.67" occupancy="12.33" waitingTime="0.00" speed="10.42" departed="0" arrived="0" entered="78" left="72" laneChangedFrom="0" laneChangedTo="0"/>
        <edge id="4o" sampledSeconds="3621.43" traveltime="47.04" overlapTraveltime="47.52" density="24.70" occupancy="12.35" waitingTime="0.00" speed="10.39" departed="0" arrived="0" entered="75" left="78" laneChangedFrom="0" laneChangedTo="0"/>
        <edge id="4si" sampledSeconds="3263.29" traveltime="44.97" overlapTraveltime="46.62" density="45.87" occupancy="7.64" waitingTime="1414.00" speed="5.19" departed="0" arrived="0" entered="72" left="62" laneChangedFrom="0" laneChangedTo="0"/>
    </interval>
    <interval begin="600.00" end="900.00" id="dump_300">
        <edge id="1fi" sampledSeconds="2708.29" traveltime="24.54" overlapTraveltime="25.01" density="36.33" occupancy="18.16" waitingTime="0.00" speed="10.14" departed="30" arrived="17" entered="80" left="90" laneChangedFrom="0" laneChangedTo="0"/>
        <edge id="1o" sampledSeconds="3770.02" traveltime="47.28" overlapTraveltime="47.82" density="25.72" occupancy="12.86" waitingTime="0.00" speed="10.32" departed="0" arrived="0" entered="75" left="80" laneChangedFrom="0" laneChangedTo="0"/>
        <edge id="1si" sampledSeconds="8302.38" traveltime="98.26" overlapTraveltime="99.96" density="116.70" occupancy="19.45" waitingTime="4734.00" speed="2.42" departed="0" arrived="0" entered="89" left="80" laneChangedFrom="0" laneChangedTo="0"/>
        <edge id="2fi" sampledSeconds="2654.40" traveltime="24.56" overlapTraveltime="25.03" density="35.61" occupancy="17.80" waitingTime="0.00" speed="10.13" departed="31" arrived="27" entered="75" left="77" laneChangedFrom="0" laneChangedTo="0"/>
        <edge id="2o" sampledSeconds="3502.68" traveltime="47.03" overlapTraveltime="47.57" density="23.89" occupancy="11.95" waitingTime="0.00" speed="10.38" departed="0" arrived="0" entered="68" left="75" laneChangedFrom="0" laneChangedTo="0"/>
        <edge id="2si" sampledSeconds="4153.65" traveltime="52.80" overlapTraveltime="54.53" density="58.38" occupancy="9.73" waitingTime="2064.00" speed="4.44" departed="0" arrived="0" entered="78" left="79" laneChangedFrom="0" laneChangedTo="0"/>
        <edge id="3fi" sampledSeconds="2972.55" traveltime="24.76" overlapTraveltime="25.24" density="39.87" occupancy="19.94" waitingTime="0.00" speed="10.04" departed="46" arrived="56" entered="72" left="64" laneChangedFrom="0" laneChangedTo="0"/>
        <edge id="3o" sampledSeconds="3571.15" traveltime="47.05" overlapTraveltime="47.56" density="24.36" occupancy="12.18" waitingTime="0.00" speed="10.38" departed="0" arrived="0" entered="76" left="72" laneChangedFrom="0" laneChangedTo="0"/>
        <edge id="3si" sampledSeconds="3452.33" traveltime="51.09" overlapTraveltime="52.79" density="48.53" occupancy="8.09" waitingTime="1760.00" speed="4.59" departed="0" arrived="0" entered="63" left="61" laneChangedFrom="0" laneChangedTo="0"/>
        <edge id="4fi" sampledSeconds="1827.81" traveltime="23.87" overlapTraveltime="24.34" density="24.52" occupancy="12.26" waitingTime="0.00" speed="10.42" departed="0" arrived="0" entered="72" left="78" laneChangedFrom="0" laneChangedTo="0"/>
        <edge id="4o" sampledSeconds="3439.51" traveltime="47.04" overlapTraveltime="47.51" density="23.46" occupancy="11.73" waitingTime="0.00" speed="10.39" departed="0" arrived="0" entered="73" left="71" laneChangedFrom="0" laneChangedTo="0"/>
        <edge id="4si" sampledSeconds="3413.31" traveltime="44.08" overlapTraveltime="45.41" density="47.98" occupancy="8.00" waitingTime="1572.00" speed="5.33" departed="0" arrived="0" entered="78" left="67" laneChangedFrom="0" laneChangedTo="0"/>
    </interval>
    <interval begin="900.00" end="1000.00" id="dump_300">
        <edge id="1fi" sampledSeconds="920.15" traveltime="24.64" overlapTraveltime="25.11" density="37.03" occupancy="18.51" waitingTime="0.00" speed="10.10" departed="11" arrived="7" entered="26" left="30" laneChangedFrom="0" laneChangedTo="0"/>
        <edge id="1o" sampledSeconds="1277.54" traveltime="47.25" overlapTraveltime="47.76" density="26.14" occupancy="13.07" waitingTime="0.00" speed="10.34" departed="0" arrived="0" entered="29" left="26" laneChangedFrom="0" laneChangedTo="0"/>
        <edge id="1si" sampledSeconds="3228.33" traveltime="104.94" overlapTraveltime="106.60" density="136.13" occupancy="22.69" waitingTime="1590.00" speed="2.27" departed="0" arrived="0" entered="31" left="24" laneChangedFrom="0" laneChangedTo="0"/>
        <edge id="2fi" sampledSeconds="785.63" traveltime="24.54" overlapTraveltime="25.01" density="31.61" occupancy="15.81" waitingTime="0.00" speed="10.14" departed="10" arrived="9" entered="23" left="24" laneChangedFrom="0" laneChangedTo="0"/>
        <edge id="2o" sampledSeconds="1096.19" traveltime="46.88" overlapTraveltime="47.39" density="22.43" occupancy="11.22" waitingTime="0.00" speed="10.42" departed="0" arrived="0" entered="24" left="23" laneChangedFrom="0" laneChangedTo="0"/>
        <edge id="2si" sampledSeconds="1175.30" traveltime="47.14" overlapTraveltime="48.79" density="49.56" occupancy="8.26" waitingTime="585.00" speed="4.96" departed="0" arrived="0" entered="23" left="21" laneChangedFrom="0" laneChangedTo="0"/>
        <edge id="3fi" sampledSeconds="990.42" traveltime="24.95" overlapTraveltime="25.42" density="39.86" occupancy="19.93" waitingTime="0.00" speed="9.97" departed="17" arrived="15" entered="23" left="24" laneChangedFrom="0" laneChangedTo="0"/>
        <edge id="3o" sampledSeconds="1164.50" traveltime="47.34" overlapTraveltime="47.90" density="23.83" occupancy="11.92" waitingTime="0.00" speed="10.31" departed="0" arrived="0" entered="23" left="23" laneChangedFrom="0" laneChangedTo="0"/>
        <edge id="3si" sampledSeconds="1194.32" traveltime="48.36" overlapTraveltime="50.08" density="50.36" occupancy="8.39" waitingTime="534.00" speed="4.84" departed="0" arrived="0" entered="25" left="31" laneChangedFrom="0" laneChangedTo="0"/>
        <edge id="4fi" sampledSeconds="511.98" traveltime="23.79" overlapTraveltime="24.25" density="20.60" occupancy="10.30" waitingTime="0.00" speed="10.45" departed="0" arrived="0" entered="23" left="21" laneChangedFrom="0" laneChangedTo="0"/>
        <edge id="4o" sampledSeconds="1068.18" traveltime="46.93" overlapTraveltime="47.41" density="21.86" occupancy="10.93" waitingTime="0.00" speed="10.41" departed="0" arrived="0" entered="23" left="23" laneChangedFrom="0" laneChangedTo="0"/>
        <edge id="4si" sampledSeconds="1352.59" traveltime="55.15" overlapTraveltime="56.96" density="57.04" occupancy="9.51" waitingTime="660.00" speed="4.25" departed="0" arrived="0" entered="21" left="31" laneChangedFrom="0" laneChangedTo="0"/>
    </interval>
</meandata>
