<?xml version="1.0" encoding="UTF-8"?>

<!-- generated on Thu Jan  5 15:09:57 2017 by SUMO Version dev-SVN-r22466
<?xml version="1.0" encoding="UTF-8"?>

<configuration xmlns:xsi="http://www.w3.org/2001/XMLSchema-instance" xsi:noNamespaceSchemaLocation="http://sumo.dlr.de/xsd/sumoConfiguration.xsd">

    <input>
        <net-file value="net.net.xml"/>
        <route-files value="input_routes.rou.xml"/>
        <additional-files value="input_additional.add.xml"/>
    </input>

    <time>
        <begin value="0"/>
        <end value="1000"/>
    </time>

    <report>
        <xml-validation value="never"/>
        <duration-log.disable value="true"/>
        <no-step-log value="true"/>
    </report>

    <mesoscopic>
        <mesosim value="true"/>
    </mesoscopic>

</configuration>
-->

<meandata xmlns:xsi="http://www.w3.org/2001/XMLSchema-instance" xsi:noNamespaceSchemaLocation="http://sumo.dlr.de/xsd/meandata_file.xsd">
    <interval begin="0.00" end="900.00" id="dump_900">
        <edge id="1fi" sampledSeconds="5641.13" traveltime="22.58" overlapTraveltime="23.03" density="25.22" occupancy="12.61" waitingTime="0.00" speed="11.01" departed="80" arrived="44" entered="174" left="201" laneChangedFrom="0" laneChangedTo="0"/>
        <edge id="1o" sampledSeconds="7943.71" traveltime="43.98" overlapTraveltime="44.43" density="18.06" occupancy="9.03" waitingTime="0.00" speed="11.11" departed="0" arrived="0" entered="187" left="174" laneChangedFrom="0" laneChangedTo="0"/>
        <edge id="1si" sampledSeconds="3485.55" traveltime="17.58" overlapTraveltime="17.95" density="16.33" occupancy="2.72" waitingTime="0.00" speed="13.49" departed="0" arrived="0" entered="201" left="195" laneChangedFrom="0" laneChangedTo="0"/>
        <edge id="2fi" sampledSeconds="6181.66" traveltime="22.47" overlapTraveltime="22.92" density="27.64" occupancy="13.82" waitingTime="0.00" speed="11.06" departed="80" arrived="61" entered="200" left="209" laneChangedFrom="0" laneChangedTo="0"/>
        <edge id="2o" sampledSeconds="9054.49" traveltime="43.98" overlapTraveltime="44.43" density="20.59" occupancy="10.29" waitingTime="0.00" speed="11.11" departed="0" arrived="0" entered="212" left="200" laneChangedFrom="0" laneChangedTo="0"/>
        <edge id="2si" sampledSeconds="3562.47" traveltime="17.24" overlapTraveltime="17.60" density="16.69" occupancy="2.78" waitingTime="0.00" speed="13.76" departed="0" arrived="0" entered="209" left="204" laneChangedFrom="0" laneChangedTo="0"/>
        <edge id="3fi" sampledSeconds="7634.66" traveltime="23.83" overlapTraveltime="24.31" density="34.14" occupancy="17.07" waitingTime="0.00" speed="10.43" departed="160" arrived="106" entered="166" left="209" laneChangedFrom="0" laneChangedTo="0"/>
        <edge id="3o" sampledSeconds="7581.80" traveltime="43.98" overlapTraveltime="44.43" density="17.24" occupancy="8.62" waitingTime="0.00" speed="11.11" departed="0" arrived="0" entered="179" left="166" laneChangedFrom="0" laneChangedTo="0"/>
        <edge id="3si" sampledSeconds="3547.08" traveltime="17.20" overlapTraveltime="17.56" density="16.62" occupancy="2.77" waitingTime="0.00" speed="13.79" departed="0" arrived="0" entered="209" left="203" laneChangedFrom="0" laneChangedTo="0"/>
        <edge id="4fi" sampledSeconds="4564.90" traveltime="22.36" overlapTraveltime="22.81" density="20.41" occupancy="10.21" waitingTime="0.00" speed="11.11" departed="0" arrived="0" entered="208" left="201" laneChangedFrom="0" laneChangedTo="0"/>
        <edge id="4o" sampledSeconds="9417.45" traveltime="43.98" overlapTraveltime="44.43" density="21.41" occupancy="10.71" waitingTime="0.00" speed="11.11" departed="0" arrived="0" entered="220" left="208" laneChangedFrom="0" laneChangedTo="0"/>
        <edge id="4si" sampledSeconds="3380.96" traveltime="17.07" overlapTraveltime="17.43" density="15.84" occupancy="2.64" waitingTime="0.00" speed="13.89" departed="0" arrived="0" entered="201" left="196" laneChangedFrom="0" laneChangedTo="0"/>
    </interval>
    <interval begin="900.00" end="1000.00" id="dump_900">
        <edge id="1fi" sampledSeconds="914.46" traveltime="22.70" overlapTraveltime="23.16" density="36.80" occupancy="18.40" waitingTime="0.00" speed="10.95" departed="10" arrived="10" entered="30" left="30" laneChangedFrom="0" laneChangedTo="0"/>
        <edge id="1o" sampledSeconds="1329.13" traveltime="43.98" overlapTraveltime="44.43" density="27.20" occupancy="13.60" waitingTime="0.00" speed="11.11" departed="0" arrived="0" entered="30" left="30" laneChangedFrom="0" laneChangedTo="0"/>
        <edge id="1si" sampledSeconds="532.01" traveltime="17.47" overlapTraveltime="17.84" density="22.43" occupancy="3.74" waitingTime="0.00" speed="13.57" departed="0" arrived="0" entered="30" left="30" laneChangedFrom="0" laneChangedTo="0"/>
        <edge id="2fi" sampledSeconds="909.04" traveltime="22.52" overlapTraveltime="22.97" density="36.58" occupancy="18.29" waitingTime="0.00" speed="11.03" departed="10" arrived="10" entered="30" left="30" laneChangedFrom="0" laneChangedTo="0"/>
        <edge id="2o" sampledSeconds="1330.64" traveltime="44.03" overlapTraveltime="44.48" density="27.23" occupancy="13.62" waitingTime="0.00" speed="11.10" departed="0" arrived="0" entered="30" left="30" laneChangedFrom="0" laneChangedTo="0"/>
        <edge id="2si" sampledSeconds="526.72" traveltime="17.32" overlapTraveltime="17.68" density="22.21" occupancy="3.70" waitingTime="0.00" speed="13.69" departed="0" arrived="0" entered="30" left="30" laneChangedFrom="0" laneChangedTo="0"/>
        <edge id="3fi" sampledSeconds="1202.14" traveltime="23.98" overlapTraveltime="24.46" density="48.38" occupancy="24.19" waitingTime="0.00" speed="10.36" departed="20" arrived="19" entered="29" left="30" laneChangedFrom="0" laneChangedTo="0"/>
        <edge id="3o" sampledSeconds="1328.61" traveltime="44.04" overlapTraveltime="44.49" density="27.19" occupancy="13.59" waitingTime="0.00" speed="11.10" departed="0" arrived="0" entered="30" left="29" laneChangedFrom="0" laneChangedTo="0"/>
        <edge id="3si" sampledSeconds="517.19" traveltime="17.08" overlapTraveltime="17.44" density="21.81" occupancy="3.63" waitingTime="0.00" speed="13.89" departed="0" arrived="0" entered="30" left="30" laneChangedFrom="0" laneChangedTo="0"/>
        <edge id="4fi" sampledSeconds="680.84" traveltime="22.37" overlapTraveltime="22.82" density="27.40" occupancy="13.70" waitingTime="0.00" speed="11.11" departed="0" arrived="0" entered="30" left="30" laneChangedFrom="0" laneChangedTo="0"/>
        <edge id="4o" sampledSeconds="1331.88" traveltime="44.03" overlapTraveltime="44.48" density="27.26" occupancy="13.63" waitingTime="0.00" speed="11.10" departed="0" arrived="0" entered="30" left="30" laneChangedFrom="0" laneChangedTo="0"/>
        <edge id="4si" sampledSeconds="521.82" traveltime="17.13" overlapTraveltime="17.49" density="22.00" occupancy="3.67" waitingTime="0.00" speed="13.84" departed="0" arrived="0" entered="30" left="30" laneChangedFrom="0" laneChangedTo="0"/>
    </interval>
</meandata>
