<?xml version="1.0" encoding="UTF-8"?>

<!-- generated on 07/08/14 18:36:51 by SUMO sumo Version dev-SVN-r16735
<?xml version="1.0" encoding="UTF-8"?>

<configuration xmlns:xsi="http://www.w3.org/2001/XMLSchema-instance" xsi:noNamespaceSchemaLocation="http://sumo-sim.org/xsd/sumoConfiguration.xsd">

    <input>
        <net-file value="net.net.xml"/>
        <route-files value="input_routes.rou.xml"/>
        <additional-files value="input_additional.add.xml"/>
    </input>

    <time>
        <begin value="0"/>
        <end value="1000"/>
    </time>

    <report>
        <xml-validation value="never"/>
        <no-duration-log value="true"/>
        <no-step-log value="true"/>
    </report>

</configuration>
-->

<meandata xmlns:xsi="http://www.w3.org/2001/XMLSchema-instance" xsi:noNamespaceSchemaLocation="http://sumo-sim.org/xsd/meandata_file.xsd">
    <interval begin="0.00" end="900.00" id="dump_900">
        <edge id="1fi" sampledSeconds="5005.45" traveltime="24.68" density="22.38" occupancy="11.19" waitingTime="0.00" speed="10.07" departed="78" arrived="18" entered="128" left="178" laneChangedFrom="0" laneChangedTo="0"/>
        <edge id="1o" sampledSeconds="6420.61" traveltime="47.09" density="14.60" occupancy="7.30" waitingTime="0.00" speed="10.38" departed="0" arrived="0" entered="139" left="128" laneChangedFrom="0" laneChangedTo="0"/>
        <edge id="1si" sampledSeconds="9367.94" traveltime="53.73" density="43.89" occupancy="7.32" waitingTime="4433.00" speed="4.41" departed="0" arrived="0" entered="177" left="160" laneChangedFrom="0" laneChangedTo="0"/>
        <edge id="2fi" sampledSeconds="5924.37" traveltime="24.53" density="26.49" occupancy="13.24" waitingTime="0.00" speed="10.13" departed="77" arrived="56" entered="166" left="179" laneChangedFrom="0" laneChangedTo="0"/>
        <edge id="2o" sampledSeconds="8123.70" traveltime="47.05" density="18.47" occupancy="9.24" waitingTime="0.00" speed="10.39" departed="0" arrived="0" entered="173" left="167" laneChangedFrom="0" laneChangedTo="0"/>
        <edge id="2si" sampledSeconds="8971.08" traveltime="50.05" density="42.03" occupancy="7.01" waitingTime="4398.00" speed="4.74" departed="0" arrived="0" entered="179" left="169" laneChangedFrom="0" laneChangedTo="0"/>
        <edge id="3fi" sampledSeconds="6184.88" traveltime="25.08" density="27.65" occupancy="13.83" waitingTime="1.00" speed="9.91" departed="139" arrived="79" entered="111" left="162" laneChangedFrom="0" laneChangedTo="0"/>
        <edge id="3o" sampledSeconds="5683.46" traveltime="47.02" density="12.92" occupancy="6.46" waitingTime="0.00" speed="10.39" departed="0" arrived="0" entered="129" left="111" laneChangedFrom="0" laneChangedTo="0"/>
        <edge id="3si" sampledSeconds="7750.27" traveltime="47.31" density="36.31" occupancy="6.05" waitingTime="3840.00" speed="5.01" departed="0" arrived="0" entered="162" left="146" laneChangedFrom="0" laneChangedTo="0"/>
        <edge id="4fi" sampledSeconds="4125.80" traveltime="23.79" density="18.45" occupancy="9.22" waitingTime="0.00" speed="10.45" departed="0" arrived="0" entered="170" left="170" laneChangedFrom="0" laneChangedTo="0"/>
        <edge id="4o" sampledSeconds="8339.10" traveltime="47.06" density="18.96" occupancy="9.48" waitingTime="0.00" speed="10.38" departed="0" arrived="0" entered="182" left="170" laneChangedFrom="0" laneChangedTo="0"/>
        <edge id="4si" sampledSeconds="8434.34" traveltime="50.03" density="39.52" occupancy="6.59" waitingTime="3918.00" speed="4.74" departed="0" arrived="0" entered="170" left="148" laneChangedFrom="0" laneChangedTo="0"/>
    </interval>
    <interval begin="900.00" end="1000.00" id="dump_900">
        <edge id="1fi" sampledSeconds="990.68" traveltime="24.45" density="39.87" occupancy="19.93" waitingTime="0.00" speed="10.16" departed="11" arrived="10" entered="28" left="30" laneChangedFrom="0" laneChangedTo="0"/>
        <edge id="1o" sampledSeconds="1333.07" traveltime="47.01" density="27.28" occupancy="13.64" waitingTime="0.00" speed="10.39" departed="0" arrived="0" entered="30" left="28" laneChangedFrom="0" laneChangedTo="0"/>
        <edge id="1si" sampledSeconds="2208.97" traveltime="65.62" density="93.15" occupancy="15.52" waitingTime="1074.00" speed="3.61" departed="0" arrived="0" entered="31" left="27" laneChangedFrom="0" laneChangedTo="0"/>
        <edge id="2fi" sampledSeconds="875.24" traveltime="24.53" density="35.22" occupancy="17.61" waitingTime="0.00" speed="10.13" departed="11" arrived="6" entered="24" left="28" laneChangedFrom="0" laneChangedTo="0"/>
        <edge id="2o" sampledSeconds="1284.05" traveltime="47.03" density="26.28" occupancy="13.14" waitingTime="0.00" speed="10.39" departed="0" arrived="0" entered="28" left="24" laneChangedFrom="0" laneChangedTo="0"/>
        <edge id="2si" sampledSeconds="1411.69" traveltime="50.61" density="59.53" occupancy="9.92" waitingTime="715.00" speed="4.69" departed="0" arrived="0" entered="28" left="25" laneChangedFrom="0" laneChangedTo="0"/>
        <edge id="3fi" sampledSeconds="971.01" traveltime="24.76" density="39.07" occupancy="19.54" waitingTime="0.00" speed="10.04" departed="13" arrived="14" entered="26" left="25" laneChangedFrom="0" laneChangedTo="0"/>
        <edge id="3o" sampledSeconds="1270.79" traveltime="47.25" density="26.01" occupancy="13.00" waitingTime="0.00" speed="10.34" departed="0" arrived="0" entered="25" left="26" laneChangedFrom="0" laneChangedTo="0"/>
        <edge id="3si" sampledSeconds="1133.75" traveltime="50.60" density="47.81" occupancy="7.97" waitingTime="516.00" speed="4.69" departed="0" arrived="0" entered="24" left="27" laneChangedFrom="0" laneChangedTo="0"/>
        <edge id="4fi" sampledSeconds="419.42" traveltime="23.87" density="16.88" occupancy="8.44" waitingTime="0.00" speed="10.41" departed="0" arrived="0" entered="19" left="17" laneChangedFrom="0" laneChangedTo="0"/>
        <edge id="4o" sampledSeconds="955.05" traveltime="47.06" density="19.54" occupancy="9.77" waitingTime="0.00" speed="10.38" departed="0" arrived="0" entered="20" left="20" laneChangedFrom="0" laneChangedTo="0"/>
        <edge id="4si" sampledSeconds="1086.71" traveltime="51.16" density="45.82" occupancy="7.64" waitingTime="449.00" speed="4.64" departed="0" arrived="0" entered="17" left="30" laneChangedFrom="0" laneChangedTo="0"/>
    </interval>
</meandata>
