<?xml version="1.0" encoding="UTF-8"?>

<!-- generated on Wed Nov 19 15:53:55 2014 by SUMO Version dev-SVN-r17350ID
<?xml version="1.0" encoding="UTF-8"?>

<configuration xmlns:xsi="http://www.w3.org/2001/XMLSchema-instance" xsi:noNamespaceSchemaLocation="http://sumo.dlr.de/xsd/sumoConfiguration.xsd">

    <input>
        <net-file value="net.net.xml"/>
        <route-files value="input_routes.rou.xml"/>
        <additional-files value="input_additional.add.xml"/>
    </input>

    <time>
        <begin value="0"/>
        <end value="1000"/>
    </time>

    <report>
        <xml-validation value="never"/>
        <no-duration-log value="true"/>
        <no-step-log value="true"/>
    </report>

    <mesoscopic>
        <mesosim value="true"/>
    </mesoscopic>

</configuration>
-->

<meandata xmlns:xsi="http://www.w3.org/2001/XMLSchema-instance" xsi:noNamespaceSchemaLocation="http://sumo.dlr.de/xsd/meandata_file.xsd">
    <interval begin="0.00" end="60.00" id="dump_60">
        <edge id="1fi" sampledSeconds="0.00" departed="0" arrived="0" entered="0" left="0" laneChangedFrom="0" laneChangedTo="0"/>
        <edge id="1o" sampledSeconds="0.00" departed="0" arrived="0" entered="0" left="0" laneChangedFrom="0" laneChangedTo="0"/>
        <edge id="1si" sampledSeconds="0.00" departed="0" arrived="0" entered="0" left="0" laneChangedFrom="0" laneChangedTo="0"/>
        <edge id="2fi" sampledSeconds="0.00" departed="0" arrived="0" entered="0" left="0" laneChangedFrom="0" laneChangedTo="0"/>
        <edge id="2o" sampledSeconds="0.00" departed="0" arrived="0" entered="0" left="0" laneChangedFrom="0" laneChangedTo="0"/>
        <edge id="2si" sampledSeconds="0.00" departed="0" arrived="0" entered="0" left="0" laneChangedFrom="0" laneChangedTo="0"/>
        <edge id="3fi" sampledSeconds="0.00" departed="0" arrived="0" entered="0" left="0" laneChangedFrom="0" laneChangedTo="0"/>
        <edge id="3o" sampledSeconds="0.00" departed="0" arrived="0" entered="0" left="0" laneChangedFrom="0" laneChangedTo="0"/>
        <edge id="3si" sampledSeconds="0.00" departed="0" arrived="0" entered="0" left="0" laneChangedFrom="0" laneChangedTo="0"/>
        <edge id="4fi" sampledSeconds="0.00" departed="0" arrived="0" entered="0" left="0" laneChangedFrom="0" laneChangedTo="0"/>
        <edge id="4o" sampledSeconds="0.00" departed="0" arrived="0" entered="0" left="0" laneChangedFrom="0" laneChangedTo="0"/>
        <edge id="4si" sampledSeconds="0.00" departed="0" arrived="0" entered="0" left="0" laneChangedFrom="0" laneChangedTo="0"/>
    </interval>
    <interval begin="60.00" end="120.00" id="dump_60">
        <edge id="1fi" sampledSeconds="28.00" traveltime="22.37" density="1.88" occupancy="0.94" waitingTime="0.00" speed="11.11" departed="2" arrived="0" entered="0" left="0" laneChangedFrom="0" laneChangedTo="0"/>
        <edge id="1o" sampledSeconds="0.00" departed="0" arrived="0" entered="0" left="0" laneChangedFrom="0" laneChangedTo="0"/>
        <edge id="1si" sampledSeconds="0.00" departed="0" arrived="0" entered="0" left="0" laneChangedFrom="0" laneChangedTo="0"/>
        <edge id="2fi" sampledSeconds="28.00" traveltime="22.37" density="1.88" occupancy="0.94" waitingTime="0.00" speed="11.11" departed="2" arrived="0" entered="0" left="0" laneChangedFrom="0" laneChangedTo="0"/>
        <edge id="2o" sampledSeconds="0.00" departed="0" arrived="0" entered="0" left="0" laneChangedFrom="0" laneChangedTo="0"/>
        <edge id="2si" sampledSeconds="0.00" departed="0" arrived="0" entered="0" left="0" laneChangedFrom="0" laneChangedTo="0"/>
        <edge id="3fi" sampledSeconds="56.00" traveltime="23.54" density="3.76" occupancy="1.88" waitingTime="0.00" speed="10.56" departed="4" arrived="0" entered="0" left="0" laneChangedFrom="0" laneChangedTo="0"/>
        <edge id="3o" sampledSeconds="0.00" departed="0" arrived="0" entered="0" left="0" laneChangedFrom="0" laneChangedTo="0"/>
        <edge id="3si" sampledSeconds="0.00" departed="0" arrived="0" entered="0" left="0" laneChangedFrom="0" laneChangedTo="0"/>
        <edge id="4fi" sampledSeconds="0.00" departed="0" arrived="0" entered="0" left="0" laneChangedFrom="0" laneChangedTo="0"/>
        <edge id="4o" sampledSeconds="0.00" departed="0" arrived="0" entered="0" left="0" laneChangedFrom="0" laneChangedTo="0"/>
        <edge id="4si" sampledSeconds="0.00" departed="0" arrived="0" entered="0" left="0" laneChangedFrom="0" laneChangedTo="0"/>
    </interval>
    <interval begin="120.00" end="180.00" id="dump_60">
        <edge id="1fi" sampledSeconds="134.19" traveltime="22.36" density="9.00" occupancy="4.50" waitingTime="0.00" speed="11.11" departed="6" arrived="0" entered="0" left="6" laneChangedFrom="0" laneChangedTo="0"/>
        <edge id="1o" sampledSeconds="98.25" traveltime="43.98" density="3.35" occupancy="1.68" waitingTime="0.00" speed="11.11" departed="0" arrived="0" entered="4" left="0" laneChangedFrom="0" laneChangedTo="0"/>
        <edge id="1si" sampledSeconds="91.56" traveltime="17.07" density="6.43" occupancy="1.07" waitingTime="0.00" speed="13.89" departed="0" arrived="0" entered="6" left="4" laneChangedFrom="0" laneChangedTo="0"/>
        <edge id="2fi" sampledSeconds="134.19" traveltime="22.36" density="9.00" occupancy="4.50" waitingTime="0.00" speed="11.11" departed="6" arrived="0" entered="0" left="6" laneChangedFrom="0" laneChangedTo="0"/>
        <edge id="2o" sampledSeconds="98.25" traveltime="43.98" density="3.35" occupancy="1.68" waitingTime="0.00" speed="11.11" departed="0" arrived="0" entered="4" left="0" laneChangedFrom="0" laneChangedTo="0"/>
        <edge id="2si" sampledSeconds="91.56" traveltime="17.07" density="6.43" occupancy="1.07" waitingTime="0.00" speed="13.89" departed="0" arrived="0" entered="6" left="4" laneChangedFrom="0" laneChangedTo="0"/>
        <edge id="3fi" sampledSeconds="276.78" traveltime="23.07" density="18.56" occupancy="9.28" waitingTime="0.00" speed="10.77" departed="12" arrived="0" entered="0" left="12" laneChangedFrom="0" laneChangedTo="0"/>
        <edge id="3o" sampledSeconds="0.00" departed="0" arrived="0" entered="0" left="0" laneChangedFrom="0" laneChangedTo="0"/>
        <edge id="3si" sampledSeconds="180.32" traveltime="17.07" density="12.67" occupancy="2.11" waitingTime="0.00" speed="13.89" departed="0" arrived="0" entered="12" left="8" laneChangedFrom="0" laneChangedTo="0"/>
        <edge id="4fi" sampledSeconds="0.00" departed="0" arrived="0" entered="0" left="0" laneChangedFrom="0" laneChangedTo="0"/>
        <edge id="4o" sampledSeconds="190.90" traveltime="43.98" density="6.51" occupancy="3.26" waitingTime="0.00" speed="11.11" departed="0" arrived="0" entered="8" left="0" laneChangedFrom="0" laneChangedTo="0"/>
        <edge id="4si" sampledSeconds="0.00" departed="0" arrived="0" entered="0" left="0" laneChangedFrom="0" laneChangedTo="0"/>
    </interval>
    <interval begin="180.00" end="240.00" id="dump_60">
        <edge id="1fi" sampledSeconds="244.82" traveltime="22.37" density="16.42" occupancy="8.21" waitingTime="0.00" speed="11.11" departed="6" arrived="0" entered="6" left="10" laneChangedFrom="0" laneChangedTo="0"/>
        <edge id="1o" sampledSeconds="263.88" traveltime="43.98" density="9.00" occupancy="4.50" waitingTime="0.00" speed="11.11" departed="0" arrived="0" entered="6" left="6" laneChangedFrom="0" laneChangedTo="0"/>
        <edge id="1si" sampledSeconds="155.81" traveltime="17.38" density="10.95" occupancy="1.83" waitingTime="0.00" speed="13.64" departed="0" arrived="0" entered="10" left="8" laneChangedFrom="0" laneChangedTo="0"/>
        <edge id="2fi" sampledSeconds="244.82" traveltime="22.37" density="16.42" occupancy="8.21" waitingTime="0.00" speed="11.11" departed="6" arrived="0" entered="6" left="10" laneChangedFrom="0" laneChangedTo="0"/>
        <edge id="2o" sampledSeconds="305.67" traveltime="43.98" density="10.43" occupancy="5.21" waitingTime="0.00" speed="11.11" departed="0" arrived="0" entered="10" left="6" laneChangedFrom="0" laneChangedTo="0"/>
        <edge id="2si" sampledSeconds="153.01" traveltime="17.07" density="10.75" occupancy="1.79" waitingTime="0.00" speed="13.89" departed="0" arrived="0" entered="10" left="8" laneChangedFrom="0" laneChangedTo="0"/>
        <edge id="3fi" sampledSeconds="276.78" traveltime="23.07" density="18.56" occupancy="9.28" waitingTime="0.00" speed="10.77" departed="12" arrived="0" entered="0" left="12" laneChangedFrom="0" laneChangedTo="0"/>
        <edge id="3o" sampledSeconds="19.49" traveltime="43.98" density="0.66" occupancy="0.33" waitingTime="0.00" speed="11.11" departed="0" arrived="0" entered="2" left="0" laneChangedFrom="0" laneChangedTo="0"/>
        <edge id="3si" sampledSeconds="204.86" traveltime="17.07" density="14.40" occupancy="2.40" waitingTime="0.00" speed="13.89" departed="0" arrived="0" entered="12" left="12" laneChangedFrom="0" laneChangedTo="0"/>
        <edge id="4fi" sampledSeconds="218.45" traveltime="22.37" density="14.65" occupancy="7.33" waitingTime="0.00" speed="11.11" departed="0" arrived="0" entered="12" left="8" laneChangedFrom="0" laneChangedTo="0"/>
        <edge id="4o" sampledSeconds="550.05" traveltime="43.98" density="18.76" occupancy="9.38" waitingTime="0.00" speed="11.11" departed="0" arrived="0" entered="14" left="12" laneChangedFrom="0" laneChangedTo="0"/>
        <edge id="4si" sampledSeconds="98.36" traveltime="17.07" density="6.91" occupancy="1.15" waitingTime="0.00" speed="13.89" departed="0" arrived="0" entered="8" left="4" laneChangedFrom="0" laneChangedTo="0"/>
    </interval>
    <interval begin="240.00" end="300.00" id="dump_60">
        <edge id="1fi" sampledSeconds="268.38" traveltime="22.37" density="18.00" occupancy="9.00" waitingTime="0.00" speed="11.11" departed="6" arrived="0" entered="6" left="12" laneChangedFrom="0" laneChangedTo="0"/>
        <edge id="1o" sampledSeconds="263.88" traveltime="43.98" density="9.00" occupancy="4.50" waitingTime="0.00" speed="11.11" departed="0" arrived="0" entered="6" left="6" laneChangedFrom="0" laneChangedTo="0"/>
        <edge id="1si" sampledSeconds="213.26" traveltime="17.77" density="14.99" occupancy="2.50" waitingTime="0.00" speed="13.34" departed="0" arrived="0" entered="12" left="12" laneChangedFrom="0" laneChangedTo="0"/>
        <edge id="2fi" sampledSeconds="381.91" traveltime="22.36" density="25.61" occupancy="12.81" waitingTime="0.00" speed="11.11" departed="6" arrived="1" entered="14" left="13" laneChangedFrom="0" laneChangedTo="0"/>
        <edge id="2o" sampledSeconds="737.51" traveltime="43.98" density="25.15" occupancy="12.58" waitingTime="0.00" speed="11.11" departed="0" arrived="0" entered="18" left="14" laneChangedFrom="0" laneChangedTo="0"/>
        <edge id="2si" sampledSeconds="214.66" traveltime="17.07" density="15.09" occupancy="2.51" waitingTime="0.00" speed="13.89" departed="0" arrived="0" entered="13" left="12" laneChangedFrom="0" laneChangedTo="0"/>
        <edge id="3fi" sampledSeconds="331.44" traveltime="22.95" density="22.23" occupancy="11.11" waitingTime="0.00" speed="10.83" departed="12" arrived="1" entered="4" left="12" laneChangedFrom="0" laneChangedTo="0"/>
        <edge id="3o" sampledSeconds="235.41" traveltime="43.98" density="8.03" occupancy="4.01" waitingTime="0.00" speed="11.11" departed="0" arrived="0" entered="6" left="4" laneChangedFrom="0" laneChangedTo="0"/>
        <edge id="3si" sampledSeconds="204.86" traveltime="17.07" density="14.40" occupancy="2.40" waitingTime="0.00" speed="13.89" departed="0" arrived="0" entered="12" left="12" laneChangedFrom="0" laneChangedTo="0"/>
        <edge id="4fi" sampledSeconds="327.24" traveltime="22.37" density="21.95" occupancy="10.97" waitingTime="0.00" speed="11.11" departed="0" arrived="0" entered="16" left="13" laneChangedFrom="0" laneChangedTo="0"/>
        <edge id="4o" sampledSeconds="765.97" traveltime="43.98" density="26.13" occupancy="13.06" waitingTime="0.00" speed="11.11" departed="0" arrived="0" entered="18" left="16" laneChangedFrom="0" laneChangedTo="0"/>
        <edge id="4si" sampledSeconds="214.66" traveltime="17.07" density="15.09" occupancy="2.51" waitingTime="0.00" speed="13.89" departed="0" arrived="0" entered="13" left="12" laneChangedFrom="0" laneChangedTo="0"/>
    </interval>
    <interval begin="300.00" end="360.00" id="dump_60">
        <edge id="1fi" sampledSeconds="277.13" traveltime="22.46" density="18.59" occupancy="9.29" waitingTime="0.00" speed="11.07" departed="6" arrived="0" entered="7" left="12" laneChangedFrom="0" laneChangedTo="0"/>
        <edge id="1o" sampledSeconds="421.50" traveltime="43.98" density="14.38" occupancy="7.19" waitingTime="0.00" speed="11.11" departed="0" arrived="0" entered="12" left="7" laneChangedFrom="0" laneChangedTo="0"/>
        <edge id="1si" sampledSeconds="213.26" traveltime="17.77" density="14.99" occupancy="2.50" waitingTime="0.00" speed="13.34" departed="0" arrived="0" entered="12" left="12" laneChangedFrom="0" laneChangedTo="0"/>
        <edge id="2fi" sampledSeconds="536.76" traveltime="22.36" density="36.00" occupancy="18.00" waitingTime="0.00" speed="11.11" departed="6" arrived="6" entered="18" left="18" laneChangedFrom="0" laneChangedTo="0"/>
        <edge id="2o" sampledSeconds="791.65" traveltime="43.98" density="27.00" occupancy="13.50" waitingTime="0.00" speed="11.11" departed="0" arrived="0" entered="18" left="18" laneChangedFrom="0" laneChangedTo="0"/>
        <edge id="2si" sampledSeconds="307.30" traveltime="17.07" density="21.60" occupancy="3.60" waitingTime="0.00" speed="13.89" departed="0" arrived="0" entered="18" left="18" laneChangedFrom="0" laneChangedTo="0"/>
        <edge id="3fi" sampledSeconds="419.72" traveltime="22.95" density="28.15" occupancy="14.08" waitingTime="0.00" speed="10.83" departed="12" arrived="6" entered="7" left="12" laneChangedFrom="0" laneChangedTo="0"/>
        <edge id="3o" sampledSeconds="421.50" traveltime="43.98" density="14.38" occupancy="7.19" waitingTime="0.00" speed="11.11" departed="0" arrived="0" entered="12" left="7" laneChangedFrom="0" laneChangedTo="0"/>
        <edge id="3si" sampledSeconds="204.86" traveltime="17.07" density="14.40" occupancy="2.40" waitingTime="0.00" speed="13.89" departed="0" arrived="0" entered="12" left="12" laneChangedFrom="0" laneChangedTo="0"/>
        <edge id="4fi" sampledSeconds="402.57" traveltime="22.36" density="27.00" occupancy="13.50" waitingTime="0.00" speed="11.11" departed="0" arrived="0" entered="18" left="18" laneChangedFrom="0" laneChangedTo="0"/>
        <edge id="4o" sampledSeconds="791.64" traveltime="43.98" density="27.00" occupancy="13.50" waitingTime="0.00" speed="11.11" departed="0" arrived="0" entered="18" left="18" laneChangedFrom="0" laneChangedTo="0"/>
        <edge id="4si" sampledSeconds="307.30" traveltime="17.07" density="21.60" occupancy="3.60" waitingTime="0.00" speed="13.89" departed="0" arrived="0" entered="18" left="18" laneChangedFrom="0" laneChangedTo="0"/>
    </interval>
    <interval begin="360.00" end="420.00" id="dump_60">
        <edge id="1fi" sampledSeconds="404.70" traveltime="22.75" density="27.14" occupancy="13.57" waitingTime="0.00" speed="10.92" departed="6" arrived="0" entered="12" left="17" laneChangedFrom="0" laneChangedTo="0"/>
        <edge id="1o" sampledSeconds="578.05" traveltime="43.98" density="19.72" occupancy="9.86" waitingTime="0.00" speed="11.11" departed="0" arrived="0" entered="15" left="12" laneChangedFrom="0" laneChangedTo="0"/>
        <edge id="1si" sampledSeconds="284.94" traveltime="17.59" density="20.03" occupancy="3.34" waitingTime="0.00" speed="13.48" departed="0" arrived="0" entered="17" left="15" laneChangedFrom="0" laneChangedTo="0"/>
        <edge id="2fi" sampledSeconds="536.76" traveltime="22.36" density="36.00" occupancy="18.00" waitingTime="0.00" speed="11.11" departed="6" arrived="6" entered="18" left="18" laneChangedFrom="0" laneChangedTo="0"/>
        <edge id="2o" sampledSeconds="791.65" traveltime="43.98" density="27.00" occupancy="13.50" waitingTime="0.00" speed="11.11" departed="0" arrived="0" entered="18" left="18" laneChangedFrom="0" laneChangedTo="0"/>
        <edge id="2si" sampledSeconds="307.30" traveltime="17.07" density="21.60" occupancy="3.60" waitingTime="0.00" speed="13.89" departed="0" arrived="0" entered="18" left="18" laneChangedFrom="0" laneChangedTo="0"/>
        <edge id="3fi" sampledSeconds="554.29" traveltime="23.36" density="37.18" occupancy="18.59" waitingTime="0.00" speed="10.64" departed="12" arrived="6" entered="12" left="17" laneChangedFrom="0" laneChangedTo="0"/>
        <edge id="3o" sampledSeconds="582.25" traveltime="43.98" density="19.86" occupancy="9.93" waitingTime="0.00" speed="11.11" departed="0" arrived="0" entered="15" left="12" laneChangedFrom="0" laneChangedTo="0"/>
        <edge id="3si" sampledSeconds="273.75" traveltime="17.07" density="19.24" occupancy="3.21" waitingTime="0.00" speed="13.89" departed="0" arrived="0" entered="17" left="15" laneChangedFrom="0" laneChangedTo="0"/>
        <edge id="4fi" sampledSeconds="402.57" traveltime="22.36" density="27.00" occupancy="13.50" waitingTime="0.00" speed="11.11" departed="0" arrived="0" entered="18" left="18" laneChangedFrom="0" laneChangedTo="0"/>
        <edge id="4o" sampledSeconds="791.64" traveltime="43.98" density="27.00" occupancy="13.50" waitingTime="0.00" speed="11.11" departed="0" arrived="0" entered="18" left="18" laneChangedFrom="0" laneChangedTo="0"/>
        <edge id="4si" sampledSeconds="307.30" traveltime="17.07" density="21.60" occupancy="3.60" waitingTime="0.00" speed="13.89" departed="0" arrived="0" entered="18" left="18" laneChangedFrom="0" laneChangedTo="0"/>
    </interval>
    <interval begin="420.00" end="480.00" id="dump_60">
        <edge id="1fi" sampledSeconds="492.12" traveltime="22.68" density="33.01" occupancy="16.50" waitingTime="0.00" speed="10.96" departed="6" arrived="3" entered="17" left="18" laneChangedFrom="0" laneChangedTo="0"/>
        <edge id="1o" sampledSeconds="784.42" traveltime="43.98" density="26.75" occupancy="13.38" waitingTime="0.00" speed="11.11" departed="0" arrived="0" entered="18" left="17" laneChangedFrom="0" laneChangedTo="0"/>
        <edge id="1si" sampledSeconds="315.69" traveltime="17.54" density="22.19" occupancy="3.70" waitingTime="0.00" speed="13.52" departed="0" arrived="0" entered="18" left="18" laneChangedFrom="0" laneChangedTo="0"/>
        <edge id="2fi" sampledSeconds="536.76" traveltime="22.36" density="36.00" occupancy="18.00" waitingTime="0.00" speed="11.11" departed="6" arrived="6" entered="18" left="18" laneChangedFrom="0" laneChangedTo="0"/>
        <edge id="2o" sampledSeconds="791.65" traveltime="43.98" density="27.00" occupancy="13.50" waitingTime="0.00" speed="11.11" departed="0" arrived="0" entered="18" left="18" laneChangedFrom="0" laneChangedTo="0"/>
        <edge id="2si" sampledSeconds="307.30" traveltime="17.07" density="21.60" occupancy="3.60" waitingTime="0.00" speed="13.89" departed="0" arrived="0" entered="18" left="18" laneChangedFrom="0" laneChangedTo="0"/>
        <edge id="3fi" sampledSeconds="645.92" traveltime="23.22" density="43.32" occupancy="21.66" waitingTime="0.00" speed="10.70" departed="12" arrived="9" entered="17" left="18" laneChangedFrom="0" laneChangedTo="0"/>
        <edge id="3o" sampledSeconds="785.82" traveltime="43.98" density="26.80" occupancy="13.40" waitingTime="0.00" speed="11.11" departed="0" arrived="0" entered="18" left="17" laneChangedFrom="0" laneChangedTo="0"/>
        <edge id="3si" sampledSeconds="307.30" traveltime="17.07" density="21.60" occupancy="3.60" waitingTime="0.00" speed="13.89" departed="0" arrived="0" entered="18" left="18" laneChangedFrom="0" laneChangedTo="0"/>
        <edge id="4fi" sampledSeconds="402.57" traveltime="22.36" density="27.00" occupancy="13.50" waitingTime="0.00" speed="11.11" departed="0" arrived="0" entered="18" left="18" laneChangedFrom="0" laneChangedTo="0"/>
        <edge id="4o" sampledSeconds="791.64" traveltime="43.98" density="27.00" occupancy="13.50" waitingTime="0.00" speed="11.11" departed="0" arrived="0" entered="18" left="18" laneChangedFrom="0" laneChangedTo="0"/>
        <edge id="4si" sampledSeconds="307.30" traveltime="17.07" density="21.60" occupancy="3.60" waitingTime="0.00" speed="13.89" departed="0" arrived="0" entered="18" left="18" laneChangedFrom="0" laneChangedTo="0"/>
    </interval>
    <interval begin="480.00" end="540.00" id="dump_60">
        <edge id="1fi" sampledSeconds="543.65" traveltime="22.65" density="36.46" occupancy="18.23" waitingTime="0.00" speed="10.97" departed="6" arrived="6" entered="18" left="18" laneChangedFrom="0" laneChangedTo="0"/>
        <edge id="1o" sampledSeconds="791.64" traveltime="43.98" density="27.00" occupancy="13.50" waitingTime="0.00" speed="11.11" departed="0" arrived="0" entered="18" left="18" laneChangedFrom="0" laneChangedTo="0"/>
        <edge id="1si" sampledSeconds="315.69" traveltime="17.54" density="22.19" occupancy="3.70" waitingTime="0.00" speed="13.52" departed="0" arrived="0" entered="18" left="18" laneChangedFrom="0" laneChangedTo="0"/>
        <edge id="2fi" sampledSeconds="536.76" traveltime="22.36" density="36.00" occupancy="18.00" waitingTime="0.00" speed="11.11" departed="6" arrived="6" entered="18" left="18" laneChangedFrom="0" laneChangedTo="0"/>
        <edge id="2o" sampledSeconds="791.65" traveltime="43.98" density="27.00" occupancy="13.50" waitingTime="0.00" speed="11.11" departed="0" arrived="0" entered="18" left="18" laneChangedFrom="0" laneChangedTo="0"/>
        <edge id="2si" sampledSeconds="307.30" traveltime="17.07" density="21.60" occupancy="3.60" waitingTime="0.00" speed="13.89" departed="0" arrived="0" entered="18" left="18" laneChangedFrom="0" laneChangedTo="0"/>
        <edge id="3fi" sampledSeconds="694.64" traveltime="23.15" density="46.59" occupancy="23.29" waitingTime="0.00" speed="10.73" departed="12" arrived="12" entered="18" left="18" laneChangedFrom="0" laneChangedTo="0"/>
        <edge id="3o" sampledSeconds="791.64" traveltime="43.98" density="27.00" occupancy="13.50" waitingTime="0.00" speed="11.11" departed="0" arrived="0" entered="18" left="18" laneChangedFrom="0" laneChangedTo="0"/>
        <edge id="3si" sampledSeconds="307.30" traveltime="17.07" density="21.60" occupancy="3.60" waitingTime="0.00" speed="13.89" departed="0" arrived="0" entered="18" left="18" laneChangedFrom="0" laneChangedTo="0"/>
        <edge id="4fi" sampledSeconds="402.57" traveltime="22.36" density="27.00" occupancy="13.50" waitingTime="0.00" speed="11.11" departed="0" arrived="0" entered="18" left="18" laneChangedFrom="0" laneChangedTo="0"/>
        <edge id="4o" sampledSeconds="791.64" traveltime="43.98" density="27.00" occupancy="13.50" waitingTime="0.00" speed="11.11" departed="0" arrived="0" entered="18" left="18" laneChangedFrom="0" laneChangedTo="0"/>
        <edge id="4si" sampledSeconds="307.30" traveltime="17.07" density="21.60" occupancy="3.60" waitingTime="0.00" speed="13.89" departed="0" arrived="0" entered="18" left="18" laneChangedFrom="0" laneChangedTo="0"/>
    </interval>
    <interval begin="540.00" end="600.00" id="dump_60">
        <edge id="1fi" sampledSeconds="543.65" traveltime="22.65" density="36.46" occupancy="18.23" waitingTime="0.00" speed="10.97" departed="6" arrived="6" entered="18" left="18" laneChangedFrom="0" laneChangedTo="0"/>
        <edge id="1o" sampledSeconds="791.64" traveltime="43.98" density="27.00" occupancy="13.50" waitingTime="0.00" speed="11.11" departed="0" arrived="0" entered="18" left="18" laneChangedFrom="0" laneChangedTo="0"/>
        <edge id="1si" sampledSeconds="315.69" traveltime="17.54" density="22.19" occupancy="3.70" waitingTime="0.00" speed="13.52" departed="0" arrived="0" entered="18" left="18" laneChangedFrom="0" laneChangedTo="0"/>
        <edge id="2fi" sampledSeconds="536.76" traveltime="22.36" density="36.00" occupancy="18.00" waitingTime="0.00" speed="11.11" departed="6" arrived="6" entered="18" left="18" laneChangedFrom="0" laneChangedTo="0"/>
        <edge id="2o" sampledSeconds="791.65" traveltime="43.98" density="27.00" occupancy="13.50" waitingTime="0.00" speed="11.11" departed="0" arrived="0" entered="18" left="18" laneChangedFrom="0" laneChangedTo="0"/>
        <edge id="2si" sampledSeconds="307.30" traveltime="17.07" density="21.60" occupancy="3.60" waitingTime="0.00" speed="13.89" departed="0" arrived="0" entered="18" left="18" laneChangedFrom="0" laneChangedTo="0"/>
        <edge id="3fi" sampledSeconds="694.64" traveltime="23.15" density="46.59" occupancy="23.29" waitingTime="0.00" speed="10.73" departed="12" arrived="12" entered="18" left="18" laneChangedFrom="0" laneChangedTo="0"/>
        <edge id="3o" sampledSeconds="791.64" traveltime="43.98" density="27.00" occupancy="13.50" waitingTime="0.00" speed="11.11" departed="0" arrived="0" entered="18" left="18" laneChangedFrom="0" laneChangedTo="0"/>
        <edge id="3si" sampledSeconds="307.30" traveltime="17.07" density="21.60" occupancy="3.60" waitingTime="0.00" speed="13.89" departed="0" arrived="0" entered="18" left="18" laneChangedFrom="0" laneChangedTo="0"/>
        <edge id="4fi" sampledSeconds="402.57" traveltime="22.36" density="27.00" occupancy="13.50" waitingTime="0.00" speed="11.11" departed="0" arrived="0" entered="18" left="18" laneChangedFrom="0" laneChangedTo="0"/>
        <edge id="4o" sampledSeconds="791.64" traveltime="43.98" density="27.00" occupancy="13.50" waitingTime="0.00" speed="11.11" departed="0" arrived="0" entered="18" left="18" laneChangedFrom="0" laneChangedTo="0"/>
        <edge id="4si" sampledSeconds="307.30" traveltime="17.07" density="21.60" occupancy="3.60" waitingTime="0.00" speed="13.89" departed="0" arrived="0" entered="18" left="18" laneChangedFrom="0" laneChangedTo="0"/>
    </interval>
    <interval begin="600.00" end="660.00" id="dump_60">
        <edge id="1fi" sampledSeconds="543.65" traveltime="22.65" density="36.46" occupancy="18.23" waitingTime="0.00" speed="10.97" departed="6" arrived="6" entered="18" left="18" laneChangedFrom="0" laneChangedTo="0"/>
        <edge id="1o" sampledSeconds="791.64" traveltime="43.98" density="27.00" occupancy="13.50" waitingTime="0.00" speed="11.11" departed="0" arrived="0" entered="18" left="18" laneChangedFrom="0" laneChangedTo="0"/>
        <edge id="1si" sampledSeconds="315.69" traveltime="17.54" density="22.19" occupancy="3.70" waitingTime="0.00" speed="13.52" departed="0" arrived="0" entered="18" left="18" laneChangedFrom="0" laneChangedTo="0"/>
        <edge id="2fi" sampledSeconds="536.76" traveltime="22.36" density="36.00" occupancy="18.00" waitingTime="0.00" speed="11.11" departed="6" arrived="6" entered="18" left="18" laneChangedFrom="0" laneChangedTo="0"/>
        <edge id="2o" sampledSeconds="791.65" traveltime="43.98" density="27.00" occupancy="13.50" waitingTime="0.00" speed="11.11" departed="0" arrived="0" entered="18" left="18" laneChangedFrom="0" laneChangedTo="0"/>
        <edge id="2si" sampledSeconds="307.30" traveltime="17.07" density="21.60" occupancy="3.60" waitingTime="0.00" speed="13.89" departed="0" arrived="0" entered="18" left="18" laneChangedFrom="0" laneChangedTo="0"/>
        <edge id="3fi" sampledSeconds="694.64" traveltime="23.15" density="46.59" occupancy="23.29" waitingTime="0.00" speed="10.73" departed="12" arrived="12" entered="18" left="18" laneChangedFrom="0" laneChangedTo="0"/>
        <edge id="3o" sampledSeconds="791.64" traveltime="43.98" density="27.00" occupancy="13.50" waitingTime="0.00" speed="11.11" departed="0" arrived="0" entered="18" left="18" laneChangedFrom="0" laneChangedTo="0"/>
        <edge id="3si" sampledSeconds="307.30" traveltime="17.07" density="21.60" occupancy="3.60" waitingTime="0.00" speed="13.89" departed="0" arrived="0" entered="18" left="18" laneChangedFrom="0" laneChangedTo="0"/>
        <edge id="4fi" sampledSeconds="402.57" traveltime="22.36" density="27.00" occupancy="13.50" waitingTime="0.00" speed="11.11" departed="0" arrived="0" entered="18" left="18" laneChangedFrom="0" laneChangedTo="0"/>
        <edge id="4o" sampledSeconds="791.64" traveltime="43.98" density="27.00" occupancy="13.50" waitingTime="0.00" speed="11.11" departed="0" arrived="0" entered="18" left="18" laneChangedFrom="0" laneChangedTo="0"/>
        <edge id="4si" sampledSeconds="307.30" traveltime="17.07" density="21.60" occupancy="3.60" waitingTime="0.00" speed="13.89" departed="0" arrived="0" entered="18" left="18" laneChangedFrom="0" laneChangedTo="0"/>
    </interval>
    <interval begin="660.00" end="720.00" id="dump_60">
        <edge id="1fi" sampledSeconds="543.65" traveltime="22.65" density="36.46" occupancy="18.23" waitingTime="0.00" speed="10.97" departed="6" arrived="6" entered="18" left="18" laneChangedFrom="0" laneChangedTo="0"/>
        <edge id="1o" sampledSeconds="791.64" traveltime="43.98" density="27.00" occupancy="13.50" waitingTime="0.00" speed="11.11" departed="0" arrived="0" entered="18" left="18" laneChangedFrom="0" laneChangedTo="0"/>
        <edge id="1si" sampledSeconds="315.69" traveltime="17.54" density="22.19" occupancy="3.70" waitingTime="0.00" speed="13.52" departed="0" arrived="0" entered="18" left="18" laneChangedFrom="0" laneChangedTo="0"/>
        <edge id="2fi" sampledSeconds="536.76" traveltime="22.36" density="36.00" occupancy="18.00" waitingTime="0.00" speed="11.11" departed="6" arrived="6" entered="18" left="18" laneChangedFrom="0" laneChangedTo="0"/>
        <edge id="2o" sampledSeconds="791.65" traveltime="43.98" density="27.00" occupancy="13.50" waitingTime="0.00" speed="11.11" departed="0" arrived="0" entered="18" left="18" laneChangedFrom="0" laneChangedTo="0"/>
        <edge id="2si" sampledSeconds="307.30" traveltime="17.07" density="21.60" occupancy="3.60" waitingTime="0.00" speed="13.89" departed="0" arrived="0" entered="18" left="18" laneChangedFrom="0" laneChangedTo="0"/>