<?xml version="1.0" encoding="UTF-8"?>

<!-- generated on Fri Feb 20 12:40:44 2015 by SUMO Version dev-SVN-r17931I
<?xml version="1.0" encoding="UTF-8"?>

<configuration xmlns:xsi="http://www.w3.org/2001/XMLSchema-instance" xsi:noNamespaceSchemaLocation="http://sumo.dlr.de/xsd/sumoConfiguration.xsd">

    <input>
        <net-file value="net.net.xml"/>
        <route-files value="input_routes.rou.xml"/>
        <additional-files value="input_additional.add.xml"/>
    </input>

    <time>
        <begin value="0"/>
        <end value="1000"/>
    </time>

    <report>
        <xml-validation value="never"/>
        <no-duration-log value="true"/>
        <no-step-log value="true"/>
    </report>

</configuration>
-->

<meandata xmlns:xsi="http://www.w3.org/2001/XMLSchema-instance" xsi:noNamespaceSchemaLocation="http://sumo.dlr.de/xsd/meandata_file.xsd">
    <interval begin="0.00" end="60.00" id="dump_60">
        <edge id="1fi" sampledSeconds="0.00" departed="0" arrived="0" entered="0" left="0" laneChangedFrom="0" laneChangedTo="0"/>
        <edge id="1o" sampledSeconds="0.00" departed="0" arrived="0" entered="0" left="0" laneChangedFrom="0" laneChangedTo="0"/>
        <edge id="1si" sampledSeconds="0.00" departed="0" arrived="0" entered="0" left="0" laneChangedFrom="0" laneChangedTo="0"/>
        <edge id="2fi" sampledSeconds="0.00" departed="0" arrived="0" entered="0" left="0" laneChangedFrom="0" laneChangedTo="0"/>
        <edge id="2o" sampledSeconds="0.00" departed="0" arrived="0" entered="0" left="0" laneChangedFrom="0" laneChangedTo="0"/>
        <edge id="2si" sampledSeconds="0.00" departed="0" arrived="0" entered="0" left="0" laneChangedFrom="0" laneChangedTo="0"/>
        <edge id="3fi" sampledSeconds="0.00" departed="0" arrived="0" entered="0" left="0" laneChangedFrom="0" laneChangedTo="0"/>
        <edge id="3o" sampledSeconds="0.00" departed="0" arrived="0" entered="0" left="0" laneChangedFrom="0" laneChangedTo="0"/>
        <edge id="3si" sampledSeconds="0.00" departed="0" arrived="0" entered="0" left="0" laneChangedFrom="0" laneChangedTo="0"/>
        <edge id="4fi" sampledSeconds="0.00" departed="0" arrived="0" entered="0" left="0" laneChangedFrom="0" laneChangedTo="0"/>
        <edge id="4o" sampledSeconds="0.00" departed="0" arrived="0" entered="0" left="0" laneChangedFrom="0" laneChangedTo="0"/>
        <edge id="4si" sampledSeconds="0.00" departed="0" arrived="0" entered="0" left="0" laneChangedFrom="0" laneChangedTo="0"/>
    </interval>
    <interval begin="60.00" end="120.00" id="dump_60">
        <edge id="1fi" sampledSeconds="28.00" traveltime="27.97" density="1.88" occupancy="0.94" waitingTime="0.00" speed="8.88" departed="2" arrived="0" entered="0" left="0" laneChangedFrom="0" laneChangedTo="0"/>
        <edge id="1o" sampledSeconds="0.00" departed="0" arrived="0" entered="0" left="0" laneChangedFrom="0" laneChangedTo="0"/>
        <edge id="1si" sampledSeconds="0.00" departed="0" arrived="0" entered="0" left="0" laneChangedFrom="0" laneChangedTo="0"/>
        <edge id="2fi" sampledSeconds="28.00" traveltime="28.24" density="1.88" occupancy="0.94" waitingTime="0.00" speed="8.80" departed="2" arrived="0" entered="0" left="0" laneChangedFrom="0" laneChangedTo="0"/>
        <edge id="2o" sampledSeconds="0.00" departed="0" arrived="0" entered="0" left="0" laneChangedFrom="0" laneChangedTo="0"/>
        <edge id="2si" sampledSeconds="0.00" departed="0" arrived="0" entered="0" left="0" laneChangedFrom="0" laneChangedTo="0"/>
        <edge id="3fi" sampledSeconds="51.00" traveltime="28.91" density="3.42" occupancy="1.71" waitingTime="0.00" speed="8.60" departed="4" arrived="0" entered="0" left="0" laneChangedFrom="0" laneChangedTo="0"/>
        <edge id="3o" sampledSeconds="0.00" departed="0" arrived="0" entered="0" left="0" laneChangedFrom="0" laneChangedTo="0"/>
        <edge id="3si" sampledSeconds="0.00" departed="0" arrived="0" entered="0" left="0" laneChangedFrom="0" laneChangedTo="0"/>
        <edge id="4fi" sampledSeconds="0.00" departed="0" arrived="0" entered="0" left="0" laneChangedFrom="0" laneChangedTo="0"/>
        <edge id="4o" sampledSeconds="0.00" departed="0" arrived="0" entered="0" left="0" laneChangedFrom="0" laneChangedTo="0"/>
        <edge id="4si" sampledSeconds="0.00" departed="0" arrived="0" entered="0" left="0" laneChangedFrom="0" laneChangedTo="0"/>
    </interval>
    <interval begin="120.00" end="180.00" id="dump_60">
        <edge id="1fi" sampledSeconds="156.03" traveltime="26.00" density="10.47" occupancy="5.23" waitingTime="0.00" speed="9.56" departed="6" arrived="0" entered="0" left="6" laneChangedFrom="0" laneChangedTo="0"/>
        <edge id="1o" sampledSeconds="68.97" traveltime="46.87" density="2.35" occupancy="1.18" waitingTime="0.00" speed="10.43" departed="0" arrived="0" entered="3" left="0" laneChangedFrom="0" laneChangedTo="0"/>
        <edge id="1si" sampledSeconds="92.53" traveltime="18.54" density="6.50" occupancy="1.08" waitingTime="0.00" speed="12.79" departed="0" arrived="0" entered="6" left="4" laneChangedFrom="0" laneChangedTo="0"/>
        <edge id="2fi" sampledSeconds="155.59" traveltime="25.96" density="10.44" occupancy="5.22" waitingTime="0.00" speed="9.57" departed="6" arrived="0" entered="0" left="6" laneChangedFrom="0" laneChangedTo="0"/>
        <edge id="2o" sampledSeconds="0.00" departed="0" arrived="0" entered="0" left="0" laneChangedFrom="0" laneChangedTo="0"/>
        <edge id="2si" sampledSeconds="94.87" traveltime="19.23" density="6.67" occupancy="1.11" waitingTime="2.00" speed="12.33" departed="0" arrived="0" entered="6" left="3" laneChangedFrom="0" laneChangedTo="0"/>
        <edge id="3fi" sampledSeconds="311.16" traveltime="25.99" density="20.87" occupancy="10.43" waitingTime="0.00" speed="9.56" departed="12" arrived="0" entered="0" left="12" laneChangedFrom="0" laneChangedTo="0"/>
        <edge id="3o" sampledSeconds="0.00" departed="0" arrived="0" entered="0" left="0" laneChangedFrom="0" laneChangedTo="0"/>
        <edge id="3si" sampledSeconds="318.95" traveltime="35.05" density="22.42" occupancy="3.74" waitingTime="135.00" speed="6.77" departed="0" arrived="0" entered="12" left="0" laneChangedFrom="0" laneChangedTo="0"/>
        <edge id="4fi" sampledSeconds="0.00" departed="0" arrived="0" entered="0" left="0" laneChangedFrom="0" laneChangedTo="0"/>
        <edge id="4o" sampledSeconds="67.98" traveltime="46.90" density="2.32" occupancy="1.16" waitingTime="0.00" speed="10.42" departed="0" arrived="0" entered="4" left="0" laneChangedFrom="0" laneChangedTo="0"/>
        <edge id="4si" sampledSeconds="0.00" departed="0" arrived="0" entered="0" left="0" laneChangedFrom="0" laneChangedTo="0"/>
    </interval>
    <interval begin="180.00" end="240.00" id="dump_60">
        <edge id="1fi" sampledSeconds="229.59" traveltime="25.36" density="15.40" occupancy="7.70" waitingTime="0.00" speed="9.80" departed="6" arrived="0" entered="3" left="9" laneChangedFrom="0" laneChangedTo="0"/>
        <edge id="1o" sampledSeconds="105.68" traveltime="47.30" density="3.60" occupancy="1.80" waitingTime="0.00" speed="10.33" departed="0" arrived="0" entered="6" left="3" laneChangedFrom="0" laneChangedTo="0"/>
        <edge id="1si" sampledSeconds="305.33" traveltime="41.62" density="21.46" occupancy="3.58" waitingTime="131.00" speed="5.70" departed="0" arrived="0" entered="9" left="3" laneChangedFrom="0" laneChangedTo="0"/>
        <edge id="2fi" sampledSeconds="173.92" traveltime="25.34" density="11.66" occupancy="5.83" waitingTime="0.00" speed="9.81" departed="6" arrived="0" entered="5" left="6" laneChangedFrom="0" laneChangedTo="0"/>
        <edge id="2o" sampledSeconds="317.17" traveltime="47.04" density="10.82" occupancy="5.41" waitingTime="0.00" speed="10.39" departed="0" arrived="0" entered="8" left="5" laneChangedFrom="0" laneChangedTo="0"/>
        <edge id="2si" sampledSeconds="304.28" traveltime="49.31" density="21.38" occupancy="3.56" waitingTime="156.00" speed="4.81" departed="0" arrived="0" entered="6" left="7" laneChangedFrom="0" laneChangedTo="0"/>
        <edge id="3fi" sampledSeconds="311.27" traveltime="26.02" density="20.88" occupancy="10.44" waitingTime="0.00" speed="9.55" departed="12" arrived="0" entered="0" left="12" laneChangedFrom="0" laneChangedTo="0"/>
        <edge id="3o" sampledSeconds="0.00" departed="0" arrived="0" entered="0" left="0" laneChangedFrom="0" laneChangedTo="0"/>
        <edge id="3si" sampledSeconds="349.09" traveltime="28.07" density="24.53" occupancy="4.09" waitingTime="83.00" speed="8.45" departed="0" arrived="0" entered="12" left="14" laneChangedFrom="0" laneChangedTo="0"/>
        <edge id="4fi" sampledSeconds="108.39" traveltime="23.72" density="7.27" occupancy="3.63" waitingTime="0.00" speed="10.48" departed="0" arrived="0" entered="8" left="3" laneChangedFrom="0" laneChangedTo="0"/>
        <edge id="4o" sampledSeconds="427.71" traveltime="46.79" density="14.59" occupancy="7.29" waitingTime="0.00" speed="10.44" departed="0" arrived="0" entered="7" left="9" laneChangedFrom="0" laneChangedTo="0"/>
        <edge id="4si" sampledSeconds="32.35" traveltime="20.06" density="2.27" occupancy="0.38" waitingTime="1.00" speed="11.82" departed="0" arrived="0" entered="3" left="0" laneChangedFrom="0" laneChangedTo="0"/>
    </interval>
    <interval begin="240.00" end="300.00" id="dump_60">
        <edge id="1fi" sampledSeconds="263.47" traveltime="25.11" density="17.67" occupancy="8.84" waitingTime="0.00" speed="9.90" departed="6" arrived="0" entered="8" left="6" laneChangedFrom="0" laneChangedTo="0"/>
        <edge id="1o" sampledSeconds="391.80" traveltime="47.03" density="13.36" occupancy="6.68" waitingTime="0.00" speed="10.39" departed="0" arrived="0" entered="3" left="8" laneChangedFrom="0" laneChangedTo="0"/>
        <edge id="1si" sampledSeconds="264.00" traveltime="33.82" density="18.55" occupancy="3.09" waitingTime="69.00" speed="7.01" departed="0" arrived="0" entered="6" left="9" laneChangedFrom="0" laneChangedTo="0"/>
        <edge id="2fi" sampledSeconds="326.12" traveltime="25.00" density="21.87" occupancy="10.94" waitingTime="0.00" speed="9.94" departed="6" arrived="0" entered="4" left="13" laneChangedFrom="0" laneChangedTo="0"/>
        <edge id="2o" sampledSeconds="317.82" traveltime="47.28" density="10.84" occupancy="5.42" waitingTime="0.00" speed="10.33" departed="0" arrived="0" entered="12" left="4" laneChangedFrom="0" laneChangedTo="0"/>
        <edge id="2si" sampledSeconds="435.39" traveltime="35.92" density="30.60" occupancy="5.10" waitingTime="182.00" speed="6.60" departed="0" arrived="0" entered="13" left="2" laneChangedFrom="0" laneChangedTo="0"/>
        <edge id="3fi" sampledSeconds="312.08" traveltime="25.98" density="20.93" occupancy="10.47" waitingTime="0.00" speed="9.57" departed="12" arrived="0" entered="0" left="12" laneChangedFrom="0" laneChangedTo="0"/>
        <edge id="3o" sampledSeconds="107.91" traveltime="46.99" density="3.68" occupancy="1.84" waitingTime="0.00" speed="10.40" departed="0" arrived="0" entered="6" left="0" laneChangedFrom="0" laneChangedTo="0"/>
        <edge id="3si" sampledSeconds="588.10" traveltime="46.76" density="41.33" occupancy="6.89" waitingTime="288.00" speed="5.07" departed="0" arrived="0" entered="11" left="18" laneChangedFrom="0" laneChangedTo="0"/>
        <edge id="4fi" sampledSeconds="170.65" traveltime="23.74" density="11.45" occupancy="5.72" waitingTime="0.00" speed="10.47" departed="0" arrived="0" entered="6" left="8" laneChangedFrom="0" laneChangedTo="0"/>
        <edge id="4o" sampledSeconds="539.63" traveltime="47.22" density="18.41" occupancy="9.20" waitingTime="0.00" speed="10.35" departed="0" arrived="0" entered="18" left="5" laneChangedFrom="0" laneChangedTo="0"/>
        <edge id="4si" sampledSeconds="325.31" traveltime="34.07" density="22.86" occupancy="3.81" waitingTime="114.00" speed="6.96" departed="0" arrived="0" entered="8" left="10" laneChangedFrom="0" laneChangedTo="0"/>
    </interval>
    <interval begin="300.00" end="360.00" id="dump_60">
        <edge id="1fi" sampledSeconds="268.83" traveltime="25.21" density="18.03" occupancy="9.02" waitingTime="0.00" speed="9.86" departed="6" arrived="0" entered="1" left="15" laneChangedFrom="0" laneChangedTo="0"/>
        <edge id="1o" sampledSeconds="282.51" traveltime="47.15" density="9.64" occupancy="4.82" waitingTime="0.00" speed="10.36" departed="0" arrived="0" entered="9" left="1" laneChangedFrom="0" laneChangedTo="0"/>
        <edge id="1si" sampledSeconds="475.71" traveltime="30.86" density="33.43" occupancy="5.57" waitingTime="118.00" speed="7.68" departed="0" arrived="0" entered="15" left="17" laneChangedFrom="0" laneChangedTo="0"/>
        <edge id="2fi" sampledSeconds="424.57" traveltime="24.49" density="28.48" occupancy="14.24" waitingTime="0.00" speed="10.15" departed="6" arrived="3" entered="14" left="12" laneChangedFrom="0" laneChangedTo="0"/>
        <edge id="2o" sampledSeconds="702.53" traveltime="46.90" density="23.96" occupancy="11.98" waitingTime="0.00" speed="10.42" departed="0" arrived="0" entered="11" left="14" laneChangedFrom="0" laneChangedTo="0"/>
        <edge id="2si" sampledSeconds="444.03" traveltime="45.18" density="31.21" occupancy="5.20" waitingTime="212.00" speed="5.25" departed="0" arrived="0" entered="12" left="16" laneChangedFrom="0" laneChangedTo="0"/>
        <edge id="3fi" sampledSeconds="407.48" traveltime="25.52" density="27.33" occupancy="13.66" waitingTime="0.00" speed="9.74" departed="12" arrived="5" entered="7" left="8" laneChangedFrom="0" laneChangedTo="0"/>
        <edge id="3o" sampledSeconds="225.69" traveltime="47.26" density="7.70" occupancy="3.85" waitingTime="0.00" speed="10.34" departed="0" arrived="0" entered="1" left="7" laneChangedFrom="0" laneChangedTo="0"/>
        <edge id="3si" sampledSeconds="532.19" traveltime="55.67" density="37.40" occupancy="6.23" waitingTime="328.00" speed="4.26" departed="0" arrived="0" entered="9" left="0" laneChangedFrom="0" laneChangedTo="0"/>
        <edge id="4fi" sampledSeconds="412.51" traveltime="23.86" density="27.67" occupancy="13.83" waitingTime="0.00" speed="10.42" departed="0" arrived="0" entered="15" left="16" laneChangedFrom="0" laneChangedTo="0"/>
        <edge id="4o" sampledSeconds="712.06" traveltime="47.07" density="24.29" occupancy="12.14" waitingTime="0.00" speed="10.38" departed="0" arrived="0" entered="16" left="15" laneChangedFrom="0" laneChangedTo="0"/>
        <edge id="4si" sampledSeconds="334.45" traveltime="31.04" density="23.50" occupancy="3.92" waitingTime="103.00" speed="7.64" departed="0" arrived="0" entered="16" left="1" laneChangedFrom="0" laneChangedTo="0"/>
    </interval>
    <interval begin="360.00" end="420.00" id="dump_60">
        <edge id="1fi" sampledSeconds="377.03" traveltime="24.83" density="25.29" occupancy="12.64" waitingTime="0.00" speed="10.01" departed="6" arrived="0" entered="9" left="15" laneChangedFrom="0" laneChangedTo="0"/>
        <edge id="1o" sampledSeconds="182.74" traveltime="47.22" density="6.23" occupancy="3.12" waitingTime="0.00" speed="10.35" departed="0" arrived="0" entered="6" left="9" laneChangedFrom="0" laneChangedTo="0"/>
        <edge id="1si" sampledSeconds="445.05" traveltime="34.43" density="31.28" occupancy="5.21" waitingTime="173.00" speed="6.89" departed="0" arrived="0" entered="15" left="9" laneChangedFrom="0" laneChangedTo="0"/>
        <edge id="2fi" sampledSeconds="470.71" traveltime="24.46" density="31.57" occupancy="15.78" waitingTime="0.00" speed="10.16" departed="5" arrived="8" entered="13" left="13" laneChangedFrom="0" laneChangedTo="0"/>
        <edge id="2o" sampledSeconds="666.89" traveltime="46.73" density="22.75" occupancy="11.37" waitingTime="0.00" speed="10.46" departed="0" arrived="0" entered="20" left="13" laneChangedFrom="0" laneChangedTo="0"/>
        <edge id="2si" sampledSeconds="904.06" traveltime="57.64" density="63.54" occupancy="10.59" waitingTime="493.00" speed="4.11" departed="0" arrived="0" entered="13" left="15" laneChangedFrom="0" laneChangedTo="0"/>
        <edge id="3fi" sampledSeconds="393.49" traveltime="25.48" density="26.39" occupancy="13.20" waitingTime="0.00" speed="9.75" departed="11" arrived="2" entered="3" left="16" laneChangedFrom="0" laneChangedTo="0"/>
        <edge id="3o" sampledSeconds="386.88" traveltime="47.08" density="13.20" occupancy="6.60" waitingTime="0.00" speed="10.38" departed="0" arrived="0" entered="9" left="4" laneChangedFrom="0" laneChangedTo="0"/>
        <edge id="3si" sampledSeconds="449.43" traveltime="31.29" density="31.59" occupancy="5.26" waitingTime="130.00" speed="7.58" departed="0" arrived="0" entered="16" left="16" laneChangedFrom="0" laneChangedTo="0"/>
        <edge id="4fi" sampledSeconds="396.55" traveltime="23.79" density="26.60" occupancy="13.30" waitingTime="0.00" speed="10.45" departed="0" arrived="0" entered="20" left="13" laneChangedFrom="0" laneChangedTo="0"/>
        <edge id="4o" sampledSeconds="776.99" traveltime="46.99" density="26.50" occupancy="13.25" waitingTime="0.00" speed="10.40" departed="0" arrived="0" entered="14" left="20" laneChangedFrom="0" laneChangedTo="0"/>
        <edge id="4si" sampledSeconds="674.41" traveltime="42.31" density="47.40" occupancy="7.90" waitingTime="222.00" speed="5.61" departed="0" arrived="0" entered="13" left="15" laneChangedFrom="0" laneChangedTo="0"/>
    </interval>
    <interval begin="420.00" end="480.00" id="dump_60">
        <edge id="1fi" sampledSeconds="257.56" traveltime="25.02" density="17.27" occupancy="8.64" waitingTime="0.00" speed="9.93" departed="6" arrived="0" entered="7" left="6" laneChangedFrom="0" laneChangedTo="0"/>
        <edge id="1o" sampledSeconds="535.65" traveltime="47.15" density="18.27" occupancy="9.13" waitingTime="0.00" speed="10.36" departed="0" arrived="0" entered="10" left="7" laneChangedFrom="0" laneChangedTo="0"/>
        <edge id="1si" sampledSeconds="418.30" traveltime="52.56" density="29.40" occupancy="4.90" waitingTime="190.00" speed="4.51" departed="0" arrived="0" entered="6" left="7" laneChangedFrom="0" laneChangedTo="0"/>
        <edge id="2fi" sampledSeconds="564.35" traveltime="24.43" density="37.85" occupancy="18.93" waitingTime="0.00" speed="10.17" departed="6" arrived="0" entered="18" left="19" laneChangedFrom="0" laneChangedTo="0"/>
        <edge id="2o" sampledSeconds="769.49" traveltime="47.03" density="26.25" occupancy="13.12" waitingTime="0.00" speed="10.39" departed="0" arrived="0" entered="15" left="18" laneChangedFrom="0" laneChangedTo="0"/>
        <edge id="2si" sampledSeconds="568.38" traveltime="33.84" density="39.95" occupancy="6.66" waitingTime="212.00" speed="7.01" departed="0" arrived="0" entered="19" left="7" laneChangedFrom="0" laneChangedTo="0"/>
        <edge id="3fi" sampledSeconds="522.67" traveltime="25.29" density="35.05" occupancy="17.53" waitingTime="0.00" speed="9.83" departed="13" arrived="9" entered="7" left="10" laneChangedFrom="0" laneChangedTo="0"/>
        <edge id="3o" sampledSeconds="333.74" traveltime="46.95" density="11.38" occupancy="5.69" waitingTime="0.00" speed="10.41" departed="0" arrived="0" entered="11" left="7" laneChangedFrom="0" laneChangedTo="0"/>
        <edge id="3si" sampledSeconds="633.74" traveltime="59.88" density="44.54" occupancy="7.42" waitingTime="369.00" speed="3.96" departed="0" arrived="0" entered="10" left="17" laneChangedFrom="0" laneChangedTo="0"/>
        <edge id="4fi" sampledSeconds="346.42" traveltime="23.89" density="23.23" occupancy="11.62" waitingTime="0.00" speed="10.40" departed="0" arrived="0" entered="14" left="14" laneChangedFrom="0" laneChangedTo="0"/>
        <edge id="4o" sampledSeconds="790.53" traveltime="46.98" density="26.96" occupancy="13.48" waitingTime="0.00" speed="10.40" departed="0" arrived="0" entered="17" left="14" laneChangedFrom="0" laneChangedTo="0"/>
        <edge id="4si" sampledSeconds="1068.63" traveltime="73.32" density="75.10" occupancy="12.52" waitingTime="629.00" speed="3.23" departed="0" arrived="0" entered="14" left="18" laneChangedFrom="0" laneChangedTo="0"/>
    </interval>
    <interval begin="480.00" end="540.00" id="dump_60">
        <edge id="1fi" sampledSeconds="437.65" traveltime="24.58" density="29.35" occupancy="14.68" waitingTime="0.00" speed="10.11" departed="6" arrived="0" entered="9" left="20" laneChangedFrom="0" laneChangedTo="0"/>
        <edge id="1o" sampledSeconds="423.46" traveltime="46.96" density="14.44" occupancy="7.22" waitingTime="0.00" speed="10.40" departed="0" arrived="0" entered="8" left="9" laneChangedFrom="0" laneChangedTo="0"/>
        <edge id="1si" sampledSeconds="755.09" traveltime="43.40" density="53.07" occupancy="8.84" waitingTime="280.00" speed="5.46" departed="0" arrived="0" entered="20" left="14" laneChangedFrom="0" laneChangedTo="0"/>
        <edge id="2fi" sampledSeconds="544.93" traveltime="24.53" density="36.55" occupancy="18.27" waitingTime="0.00" speed="10.13" departed="5" arrived="10" entered="17" left="13" laneChangedFrom="0" laneChangedTo="0"/>
        <edge id="2o" sampledSeconds="846.22" traveltime="47.13" density="28.86" occupancy="14.43" waitingTime="0.00" speed="10.37" departed="0" arrived="0" entered="14" left="17" laneChangedFrom="0" laneChangedTo="0"/>
        <edge id="2si" sampledSeconds="703.83" traveltime="52.88" density="49.46" occupancy="8.24" waitingTime="325.00" speed="4.48" departed="0" arrived="0" entered="13" left="22" laneChangedFrom="0" laneChangedTo="0"/>
        <edge id="3fi" sampledSeconds="539.96" traveltime="25.11" density="36.21" occupancy="18.11" waitingTime="0.00" speed="9.90" departed="12" arrived="6" entered="10" left="15" laneChangedFrom="0" laneChangedTo="0"/>
        <edge id="3o" sampledSeconds="319.89" traveltime="47.25" density="10.91" occupancy="5.46" waitingTime="0.00" speed="10.34" departed="0" arrived="0" entered="6" left="9" laneChangedFrom="0" laneChangedTo="0"/>
        <edge id="3si" sampledSeconds="839.82" traveltime="53.64" density="59.02" occupancy="9.84" waitingTime="507.00" speed="4.42" departed="0" arrived="0" entered="15" left="0" laneChangedFrom="0" laneChangedTo="0"/>
        <edge id="4fi" sampledSeconds="402.51" traveltime="23.75" density="27.00" occupancy="13.50" waitingTime="0.00" speed="10.46" departed="0" arrived="0" entered="13" left="21" laneChangedFrom="0" laneChangedTo="0"/>
        <edge id="4o" sampledSeconds="623.71" traveltime="47.04" density="21.27" occupancy="10.64" waitingTime="0.00" speed="10.39" departed="0" arrived="0" entered="13" left="13" laneChangedFrom="0" laneChangedTo="0"/>
        <edge id="4si" sampledSeconds="1071.38" traveltime="64.05" density="75.30" occupancy="12.55" waitingTime="627.00" speed="3.70" departed="0" arrived="0" entered="21" left="3" laneChangedFrom="0" laneChangedTo="0"/>
    </interval>
    <interval begin="540.00" end="600.00" id="dump_60">
        <edge id="1fi" sampledSeconds="368.27" traveltime="24.40" density="24.70" occupancy="12.35" waitingTime="0.00" speed="10.19" departed="5" arrived="0" entered="13" left="15" laneChangedFrom="0" laneChangedTo="0"/>
        <edge id="1o" sampledSeconds="730.60" traveltime="47.07" density="24.92" occupancy="12.46" waitingTime="0.00" speed="10.38" departed="0" arrived="0" entered="19" left="13" laneChangedFrom="0" laneChangedTo="0"/>
        <edge id="1si" sampledSeconds="1162.47" traveltime="77.65" density="81.70" occupancy="13.62" waitingTime="740.00" speed="3.05" departed="0" arrived="0" entered="15" left="14" laneChangedFrom="0" laneChangedTo="0"/>
        <edge id="2fi" sampledSeconds="548.39" traveltime="24.65" density="36.78" occupancy="18.39" waitingTime="0.00" speed="10.08" departed="7" arrived="8" entered="14" left="15" laneChangedFrom="0" laneChangedTo="0"/>
        <edge id="2o" sampledSeconds="751.76" traveltime="47.09" density="25.64" occupancy="12.82" waitingTime="0.00" speed="10.38" departed="0" arrived="0" entered="20" left="14" laneChangedFrom="0" laneChangedTo="0"/>
        <edge id="2si" sampledSeconds="1053.81" traveltime="59.49" density="74.06" occupancy="12.34" waitingTime="573.00" speed="3.99" departed="0" arrived="0" entered="15" left="15" laneChangedFrom="0" laneChangedTo="0"/>
        <edge id="3fi" sampledSeconds="462.10" traveltime="24.89" density="30.99" occupancy="15.50" waitingTime="0.00" speed="9.99" departed="9" arrived="1" entered="10" left="16" laneChangedFrom="0" laneChangedTo="0"/>
        <edge id="3o" sampledSeconds="637.00" traveltime="47.13" density="21.73" occupancy="10.86" waitingTime="0.00" speed="10.37" departed="0" arrived="0" entered="15" left="11" laneChangedFrom="0" laneChangedTo="0"/>
        <edge id="3si" sampledSeconds="568.76" traveltime="36.53" density="39.97" occupancy="6.66" waitingTime="186.00" speed="6.49" departed="0" arrived="0" entered="16" left="24" laneChangedFrom="0" laneChangedTo="0"/>
        <edge id="4fi" sampledSeconds="328.28" traveltime="23.83" density="22.02" occupancy="11.01" waitingTime="0.00" speed="10.43" departed="0" arrived="0" entered="17" left="10" laneChangedFrom="0" laneChangedTo="0"/>
        <edge id="4o" sampledSeconds="766.44" traveltime="47.19" density="26.14" occupancy="13.07" waitingTime="0.00" speed="10.36" departed="0" arrived="0" entered="16" left="18" laneChangedFrom="0" laneChangedTo="0"/>
        <edge id="4si" sampledSeconds="888.75" traveltime="57.17" density="62.46" occupancy="10.41" waitingTime="364.00" speed="4.15" departed="0" arrived="0" entered="10" left="23" laneChangedFrom="0" laneChangedTo="0"/>
    </interval>
    <interval begin="600.00" end="660.00" id="dump_60">
        <edge id="1fi" sampledSeconds="562.76" traveltime="24.57" density="37.74" occupancy="18.87" waitingTime="0.00" speed="10.11" departed="7" arrived="4" entered="16" left="16" laneChangedFrom="0" laneChangedTo="0"/>
        <edge id="1o" sampledSeconds="621.76" traveltime="47.24" density="21.21" occupancy="10.60" waitingTime="0.00" speed="10.34" departed="0" arrived="0" entered="14" left="16" laneChangedFrom="0" laneChangedTo="0"/>
        <edge id="1si" sampledSeconds="1121.97" traveltime="69.62" density="78.85" occupancy="13.14" waitingTime="593.00" speed="3.41" departed="0" arrived="0" entered="16" left="7" laneChangedFrom="0" laneChangedTo="0"/>
        <edge id="2fi" sampledSeconds="570.25" traveltime="24.58" density="38.25" occupancy="19.12" waitingTime="0.00" speed="10.11" departed="7" arrived="1" entered="16" left="20" laneChangedFrom="0" laneChangedTo="0"/>
        <edge id="2o" sampledSeconds="625.14" traveltime="46.91" density="21.32" occupancy="10.66" waitingTime="0.00" speed="10.42" departed="0" arrived="0" entered="11" left="16" laneChangedFrom="0" laneChangedTo="0"/>
        <edge id="2si" sampledSeconds="657.54" traveltime="36.90" density="46.21" occupancy="7.70" waitingTime="258.00" speed="6.43" departed="0" arrived="0" entered="20" left="10" laneChangedFrom="0" laneChangedTo="0"/>
        <edge id="3fi" sampledSeconds="612.01" traveltime="24.60" density="41.05" occupancy="20.52" waitingTime="0.00" speed="10.10" departed="10" arrived="9" entered="16" left="15" laneChangedFrom="0" laneChangedTo="0"/>
        <edge id="3o" sampledSeconds="768.89" traveltime="47.18" density="26.23" occupancy="13.11" waitingTime="0.00" speed="10.36" departed="0" arrived="0" entered="17" left="15" laneChangedFrom="0" laneChangedTo="0"/>
        <edge id="3si" sampledSeconds="847.40" traveltime="55.66" density="59.55" occupancy="9.93" waitingTime="453.00" speed="4.26" departed="0" arrived="0" entered="15" left="19" laneChangedFrom="0" laneChangedTo="0"/>
        <edge id="4fi" sampledSeconds="383.82" traveltime="23.88" density="25.74" occupancy="12.87" waitingTime="0.00" speed="10.41" departed="0" arrived="0" entered="16" left="15" laneChangedFrom="0" laneChangedTo="0"/>
        <edge id="4o" sampledSeconds="827.72" traveltime="47.07" density="28.23" occupancy="14.12" waitingTime="0.00" speed="10.38" departed="0" arrived="0" entered="18" left="15" laneChangedFrom="0" laneChangedTo="0"/>
        <edge id="4si" sampledSeconds="1098.70" traveltime="72.07" density="77.22" occupancy="12.87" waitingTime="643.00" speed="3.29" departed="0" arrived="0" entered="15" left="21" laneChangedFrom="0" laneChangedTo="0"/>
    </interval>
    <interval begin="660.00" end="720.00" id="dump_60">
        <edge id="1fi" sampledSeconds="485.16" traveltime="24.53" density="32.54" occupancy="16.27" waitingTime="0.00" speed="10.13" departed="5" arrived="0" entered="15" left="20" laneChangedFrom="0" laneChangedTo="0"/>
        <edge id="1o" sampledSeconds="805.01" traveltime="47.13" density="27.46" occupancy="13.73" waitingTime="0.00" speed="10.37" departed="0" arrived="0" entered="13" left="15" laneChangedFrom="0" laneChangedTo="0"/>
        <edge id="1si" sampledSeconds="1373.59" traveltime="75.17" density="96.53" occupancy="16.09" waitingTime="744.00" speed="3.15" departed="0" arrived="0" entered="20" left="24" laneChangedFrom="0" laneChangedTo="0"/>
        <edge id="2fi" sampledSeconds="469.04" traveltime="24.57" density="31.46" occupancy="15.73" waitingTime="0.00" speed="10.11" departed="6" arrived="7" entered="13" left="13" laneChangedFrom="0" laneChangedTo="0"/>
        <edge id="2o" sampledSeconds="741.03" traveltime="47.04" density="25.27" occupancy="12.64" waitingTime="0.00" speed="10.39" departed="0" arrived="0" entered="13" left="14" laneChangedFrom="0" laneChangedTo="0"/>
        <edge id="2si" sampledSeconds="757.40" traveltime="52.11" density="53.23" occupancy="8.87" waitingTime="361.00" speed="4.55" departed="0" arrived="0" entered="13" left="25" laneChangedFrom="0" laneChangedTo="0"/>
        <edge id="3fi" sampledSeconds="593.88" traveltime="24.77" density="39.83" occupancy="19.92" waitingTime="0.00" speed="10.03" departed="9" arrived="13" entered="13" left="12" laneChangedFrom="0" laneChangedTo="0"/>