<?xml version="1.0" encoding="UTF-8"?>

<!-- generated on Thu Dec 13 13:51:00 2018 by Eclipse SUMO Version v1_0_1+0645-93703db
This data file and the accompanying materials
are made available under the terms of the Eclipse Public License v2.0
which accompanies this distribution, and is available at
http://www.eclipse.org/legal/epl-v20.html
SPDX-License-Identifier: EPL-2.0
<configuration xmlns:xsi="http://www.w3.org/2001/XMLSchema-instance" xsi:noNamespaceSchemaLocation="http://sumo.dlr.de/xsd/sumoConfiguration.xsd">

    <input>
        <net-file value="net.net.xml"/>
        <route-files value="input_routes.rou.xml"/>
        <additional-files value="input_additional.add.xml"/>
    </input>

    <output>
        <write-license value="true"/>
        <vehroute-output value="vehroutes.xml"/>
    </output>

    <processing>
        <default.speeddev value="0"/>
        <pedestrian.model value="nonInteracting"/>
    </processing>

    <report>
        <xml-validation value="never"/>
        <duration-log.disable value="true"/>
        <no-step-log value="true"/>
    </report>

    <mesoscopic>
        <mesosim value="true"/>
    </mesoscopic>

</configuration>
-->

<routes xmlns:xsi="http://www.w3.org/2001/XMLSchema-instance" xsi:noNamespaceSchemaLocation="http://sumo.dlr.de/xsd/routes_file.xsd">
    <vehicle id="0" depart="0.00" fromTaz="taz_0" toTaz="taz_1" arrival="46.00">
        <routeDistribution>
            <route replacedOnEdge="" reason="device.rerouting" replacedAtTime="0.00" probability="0" edges="taz_0-source taz_2-sink taz_1-sink"/>
            <route edges="A1toB1 B1toB2 B2toB3 B3toB2 B2toB1 B1toC1 C1toC0"/>
        </routeDistribution>
    </vehicle>

</routes>
