<?xml version="1.0"?>

<!-- generated on 04/02/10 11:42:38 by SUMO sumo Version dev-SVN-r8487
<configuration>

    <input>
        <net-file value="three_split.net.xml"/>
        <additional-files value="input_routes.rou.xml,input_additional.add.xml"/>
    </input>

    <output>
        <vehroute-output value="vehroutes.xml"/>
    </output>

    <time>
        <begin value="100"/>
    </time>

    <report>
        <no-duration-log value="true"/>
        <no-step-log value="true"/>
    </report>

</configuration>
-->

<routes>
    <vehicle id="5" depart="100" arrival="291.00">
        <routeDistribution>
            <route replacedOnEdge="beg" replacedAtTime="100.00" probability="0" edges="beg middle end rend"/>
            <route edges="beg beg2left left left2end end rend"/>
        </routeDistribution>
    </vehicle>

    <vehicle id="6" depart="120" arrival="311.00">
        <routeDistribution>
            <route replacedOnEdge="beg" replacedAtTime="120.00" probability="0" edges="beg middle end rend"/>
            <route edges="beg beg2left left left2end end rend"/>
        </routeDistribution>
    </vehicle>

    <vehicle id="7" depart="140" arrival="331.00">
        <routeDistribution>
            <route replacedOnEdge="beg" replacedAtTime="140.00" probability="0" edges="beg middle end rend"/>
            <route edges="beg beg2left left left2end end rend"/>
        </routeDistribution>
    </vehicle>

    <vehicle id="8" depart="160" arrival="351.00">
        <routeDistribution>
            <route replacedOnEdge="beg" replacedAtTime="160.00" probability="0" edges="beg middle end rend"/>
            <route edges="beg beg2left left left2end end rend"/>
        </routeDistribution>
    </vehicle>

    <vehicle id="9" depart="180" arrival="371.00">
        <routeDistribution>
            <route replacedOnEdge="beg" replacedAtTime="180.00" probability="0" edges="beg middle end rend"/>
            <route edges="beg beg2left left left2end end rend"/>
        </routeDistribution>
    </vehicle>

</routes>
