<?xml version="1.0" encoding="UTF-8"?>

<!-- generated on 2022-07-15 14:52:12 by Eclipse SUMO sumo Version v1_14_0+0126-629d33d
This data file and the accompanying materials
are made available under the terms of the Eclipse Public License v2.0
which accompanies this distribution, and is available at
http://www.eclipse.org/legal/epl-v20.html
This file may also be made available under the following Secondary
Licenses when the conditions for such availability set forth in the Eclipse
Public License 2.0 are satisfied: GNU General Public License, version 2
or later which is available at
https://www.gnu.org/licenses/old-licenses/gpl-2.0-standalone.html
SPDX-License-Identifier: EPL-2.0 OR GPL-2.0-or-later
<configuration xmlns:xsi="http://www.w3.org/2001/XMLSchema-instance" xsi:noNamespaceSchemaLocation="http://sumo.dlr.de/xsd/sumoConfiguration.xsd">

    <input>
        <net-file value="three_split.net.xml"/>
        <route-files value="input_routes.rou.xml"/>
        <additional-files value="input_additional.add.xml"/>
    </input>

    <output>
        <write-license value="true"/>
        <tripinfo-output value="tripinfos.xml"/>
        <vehroute-output value="vehroutes.xml"/>
    </output>

    <processing>
        <default.speeddev value="0"/>
        <pedestrian.model value="nonInteracting"/>
    </processing>

    <report>
        <xml-validation value="never"/>
        <duration-log.disable value="true"/>
        <no-step-log value="true"/>
    </report>

</configuration>
-->

<routes xmlns:xsi="http://www.w3.org/2001/XMLSchema-instance" xsi:noNamespaceSchemaLocation="http://sumo.dlr.de/xsd/routes_file.xsd">
    <person id="p0" depart="0.00" departPos="40.00" arrival="18.00">
        <walk edges="beg" busStop="bs"/>
    </person>

    <person id="p4" depart="20.00" departPos="40.00" arrival="60.00">
        <walk edges="beg" trainStop="ts"/>
    </person>

    <person id="p1" depart="5.00" departPos="40.00" arrival="157.00">
        <walk edges="beg"/>
    </person>

    <person id="p2" depart="10.00" departPos="40.00" arrival="162.00">
        <walk edges="beg"/>
    </person>

    <person id="p3" depart="15.00" departPos="40.00" arrival="167.00">
        <walk edges="beg"/>
    </person>

</routes>
