<?xml version="1.0" encoding="UTF-8"?>

<!-- generated on Wed Mar 11 22:23:46 2020 by Eclipse SUMO Version v1_5_0+0662-a598ecae47
This data file and the accompanying materials
are made available under the terms of the Eclipse Public License v2.0
which accompanies this distribution, and is available at
http://www.eclipse.org/legal/epl-v20.html
SPDX-License-Identifier: EPL-2.0
<configuration xmlns:xsi="http://www.w3.org/2001/XMLSchema-instance" xsi:noNamespaceSchemaLocation="http://sumo.dlr.de/xsd/sumoConfiguration.xsd">

    <input>
        <net-file value="net2.net.xml"/>
        <route-files value="input_routes.rou.xml"/>
    </input>

    <output>
        <write-license value="true"/>
        <fcd-output value="fcd.xml"/>
        <tripinfo-output value="tripinfos.xml"/>
    </output>

    <time>
        <step-length value="0.2"/>
    </time>

    <processing>
        <default.speeddev value="0"/>
    </processing>

    <report>
        <xml-validation value="never"/>
        <no-step-log value="true"/>
    </report>

    <gui_only>
        <tracker-interval value="0.2"/>
    </gui_only>

</configuration>
-->

<fcd-export xmlns:xsi="http://www.w3.org/2001/XMLSchema-instance" xsi:noNamespaceSchemaLocation="http://sumo.dlr.de/xsd/fcd_file.xsd">
    <timestep time="0.00">
        <vehicle id="overtaking" x="0.00" y="-1.60" angle="90.00" type="DEFAULT_VEHTYPE" speed="0.00" pos="0.00" lane="VODUGES_beg_0" slope="0.00"/>
        <vehicle id="stopped" x="40.00" y="-1.60" angle="90.00" type="DEFAULT_VEHTYPE" speed="0.00" pos="40.00" lane="VODUGES_beg_0" slope="0.00"/>
    </timestep>
    <timestep time="0.20">
        <vehicle id="overtaking" x="0.10" y="-1.60" angle="90.00" type="DEFAULT_VEHTYPE" speed="0.52" pos="0.10" lane="VODUGES_beg_0" slope="0.00"/>
        <vehicle id="stopped" x="40.10" y="-1.60" angle="90.00" type="DEFAULT_VEHTYPE" speed="0.52" pos="40.10" lane="VODUGES_beg_0" slope="0.00"/>
    </timestep>
    <timestep time="0.40">
        <vehicle id="overtaking" x="0.31" y="-1.60" angle="90.00" type="DEFAULT_VEHTYPE" speed="1.04" pos="0.31" lane="VODUGES_beg_0" slope="0.00"/>
        <vehicle id="stopped" x="40.31" y="-1.60" angle="90.00" type="DEFAULT_VEHTYPE" speed="1.04" pos="40.31" lane="VODUGES_beg_0" slope="0.00"/>
    </timestep>
    <timestep time="0.60">
        <vehicle id="overtaking" x="0.62" y="-1.60" angle="90.00" type="DEFAULT_VEHTYPE" speed="1.56" pos="0.62" lane="VODUGES_beg_0" slope="0.00"/>
        <vehicle id="stopped" x="40.62" y="-1.60" angle="90.00" type="DEFAULT_VEHTYPE" speed="1.56" pos="40.62" lane="VODUGES_beg_0" slope="0.00"/>
    </timestep>
    <timestep time="0.80">
        <vehicle id="overtaking" x="1.04" y="-1.60" angle="90.00" type="DEFAULT_VEHTYPE" speed="2.08" pos="1.04" lane="VODUGES_beg_0" slope="0.00"/>
        <vehicle id="stopped" x="41.04" y="-1.60" angle="90.00" type="DEFAULT_VEHTYPE" speed="2.08" pos="41.04" lane="VODUGES_beg_0" slope="0.00"/>
    </timestep>
    <timestep time="1.00">
        <vehicle id="overtaking" x="1.56" y="-1.60" angle="90.00" type="DEFAULT_VEHTYPE" speed="2.60" pos="1.56" lane="VODUGES_beg_0" slope="0.00"/>
        <vehicle id="stopped" x="41.56" y="-1.60" angle="90.00" type="DEFAULT_VEHTYPE" speed="2.60" pos="41.56" lane="VODUGES_beg_0" slope="0.00"/>
    </timestep>
    <timestep time="1.20">
        <vehicle id="overtaking" x="2.18" y="-1.60" angle="90.00" type="DEFAULT_VEHTYPE" speed="3.12" pos="2.18" lane="VODUGES_beg_0" slope="0.00"/>
        <vehicle id="stopped" x="42.18" y="-1.60" angle="90.00" type="DEFAULT_VEHTYPE" speed="3.12" pos="42.18" lane="VODUGES_beg_0" slope="0.00"/>
    </timestep>
    <timestep time="1.40">
        <vehicle id="overtaking" x="2.91" y="-1.60" angle="90.00" type="DEFAULT_VEHTYPE" speed="3.64" pos="2.91" lane="VODUGES_beg_0" slope="0.00"/>
        <vehicle id="stopped" x="42.91" y="-1.60" angle="90.00" type="DEFAULT_VEHTYPE" speed="3.64" pos="42.91" lane="VODUGES_beg_0" slope="0.00"/>
    </timestep>
    <timestep time="1.60">
        <vehicle id="overtaking" x="3.74" y="-1.60" angle="90.00" type="DEFAULT_VEHTYPE" speed="4.16" pos="3.74" lane="VODUGES_beg_0" slope="0.00"/>
        <vehicle id="stopped" x="43.69" y="-1.60" angle="90.00" type="DEFAULT_VEHTYPE" speed="3.89" pos="43.69" lane="VODUGES_beg_0" slope="0.00"/>
    </timestep>
    <timestep time="1.80">
        <vehicle id="overtaking" x="4.68" y="-1.60" angle="90.00" type="DEFAULT_VEHTYPE" speed="4.68" pos="4.68" lane="VODUGES_beg_0" slope="0.00"/>
        <vehicle id="stopped" x="44.29" y="-1.60" angle="90.00" type="DEFAULT_VEHTYPE" speed="2.99" pos="44.29" lane="VODUGES_beg_0" slope="0.00"/>
    </timestep>
    <timestep time="2.00">
        <vehicle id="overtaking" x="5.72" y="-1.60" angle="90.00" type="DEFAULT_VEHTYPE" speed="5.20" pos="5.72" lane="VODUGES_beg_0" slope="0.00"/>
        <vehicle id="stopped" x="44.70" y="-1.60" angle="90.00" type="DEFAULT_VEHTYPE" speed="2.09" pos="44.70" lane="VODUGES_beg_0" slope="0.00"/>
    </timestep>
    <timestep time="2.20">
        <vehicle id="overtaking" x="6.86" y="-1.60" angle="90.00" type="DEFAULT_VEHTYPE" speed="5.72" pos="6.86" lane="VODUGES_beg_0" slope="0.00"/>
        <vehicle id="stopped" x="44.94" y="-1.60" angle="90.00" type="DEFAULT_VEHTYPE" speed="1.19" pos="44.94" lane="VODUGES_beg_0" slope="0.00"/>
    </timestep>
    <timestep time="2.40">
        <vehicle id="overtaking" x="8.11" y="-1.60" angle="90.00" type="DEFAULT_VEHTYPE" speed="6.24" pos="8.11" lane="VODUGES_beg_0" slope="0.00"/>
        <vehicle id="stopped" x="45.00" y="-1.60" angle="90.00" type="DEFAULT_VEHTYPE" speed="0.29" pos="45.00" lane="VODUGES_beg_0" slope="0.00"/>
    </timestep>
    <timestep time="2.60">
        <vehicle id="overtaking" x="9.46" y="1.60" angle="90.00" type="DEFAULT_VEHTYPE" speed="6.76" pos="35.84" lane="-VODUGES_beg_0" slope="0.00"/>
        <vehicle id="stopped" x="45.00" y="-1.60" angle="90.00" type="DEFAULT_VEHTYPE" speed="0.00" pos="45.00" lane="VODUGES_beg_0" slope="0.00"/>
    </timestep>
    <timestep time="2.80">
        <vehicle id="overtaking" x="10.92" y="1.60" angle="90.00" type="DEFAULT_VEHTYPE" speed="7.28" pos="34.38" lane="-VODUGES_beg_0" slope="0.00"/>
        <vehicle id="stopped" x="45.00" y="-1.60" angle="90.00" type="DEFAULT_VEHTYPE" speed="0.00" pos="45.00" lane="VODUGES_beg_0" slope="0.00"/>
    </timestep>
    <timestep time="3.00">
        <vehicle id="overtaking" x="12.48" y="1.60" angle="90.00" type="DEFAULT_VEHTYPE" speed="7.80" pos="32.82" lane="-VODUGES_beg_0" slope="0.00"/>
        <vehicle id="stopped" x="45.00" y="-1.60" angle="90.00" type="DEFAULT_VEHTYPE" speed="0.00" pos="45.00" lane="VODUGES_beg_0" slope="0.00"/>
    </timestep>
    <timestep time="3.20">
        <vehicle id="overtaking" x="14.14" y="1.60" angle="90.00" type="DEFAULT_VEHTYPE" speed="8.32" pos="31.16" lane="-VODUGES_beg_0" slope="0.00"/>
        <vehicle id="stopped" x="45.00" y="-1.60" angle="90.00" type="DEFAULT_VEHTYPE" speed="0.00" pos="45.00" lane="VODUGES_beg_0" slope="0.00"/>
    </timestep>
    <timestep time="3.40">
        <vehicle id="overtaking" x="15.91" y="1.60" angle="90.00" type="DEFAULT_VEHTYPE" speed="8.84" pos="29.39" lane="-VODUGES_beg_0" slope="0.00"/>
        <vehicle id="stopped" x="45.00" y="-1.60" angle="90.00" type="DEFAULT_VEHTYPE" speed="0.00" pos="45.00" lane="VODUGES_beg_0" slope="0.00"/>
    </timestep>
    <timestep time="3.60">
        <vehicle id="overtaking" x="17.78" y="1.60" angle="90.00" type="DEFAULT_VEHTYPE" speed="9.36" pos="27.52" lane="-VODUGES_beg_0" slope="0.00"/>
        <vehicle id="stopped" x="45.00" y="-1.60" angle="90.00" type="DEFAULT_VEHTYPE" speed="0.00" pos="45.00" lane="VODUGES_beg_0" slope="0.00"/>
    </timestep>
    <timestep time="3.80">
        <vehicle id="overtaking" x="19.76" y="1.60" angle="90.00" type="DEFAULT_VEHTYPE" speed="9.88" pos="25.54" lane="-VODUGES_beg_0" slope="0.00"/>
        <vehicle id="stopped" x="45.00" y="-1.60" angle="90.00" type="DEFAULT_VEHTYPE" speed="0.00" pos="45.00" lane="VODUGES_beg_0" slope="0.00"/>
    </timestep>
    <timestep time="4.00">
        <vehicle id="overtaking" x="21.84" y="1.60" angle="90.00" type="DEFAULT_VEHTYPE" speed="10.40" pos="23.46" lane="-VODUGES_beg_0" slope="0.00"/>
        <vehicle id="stopped" x="45.00" y="-1.60" angle="90.00" type="DEFAULT_VEHTYPE" speed="0.00" pos="45.00" lane="VODUGES_beg_0" slope="0.00"/>
    </timestep>
    <timestep time="4.20">
        <vehicle id="overtaking" x="24.02" y="1.60" angle="90.00" type="DEFAULT_VEHTYPE" speed="10.92" pos="21.28" lane="-VODUGES_beg_0" slope="0.00"/>
        <vehicle id="stopped" x="45.00" y="-1.60" angle="90.00" type="DEFAULT_VEHTYPE" speed="0.00" pos="45.00" lane="VODUGES_beg_0" slope="0.00"/>
    </timestep>
    <timestep time="4.40">
        <vehicle id="overtaking" x="26.31" y="1.60" angle="90.00" type="DEFAULT_VEHTYPE" speed="11.44" pos="18.99" lane="-VODUGES_beg_0" slope="0.00"/>
        <vehicle id="stopped" x="45.00" y="-1.60" angle="90.00" type="DEFAULT_VEHTYPE" speed="0.00" pos="45.00" lane="VODUGES_beg_0" slope="0.00"/>
    </timestep>
    <timestep time="4.60">
        <vehicle id="overtaking" x="28.70" y="1.60" angle="90.00" type="DEFAULT_VEHTYPE" speed="11.96" pos="16.60" lane="-VODUGES_beg_0" slope="0.00"/>
        <vehicle id="stopped" x="45.00" y="-1.60" angle="90.00" type="DEFAULT_VEHTYPE" speed="0.00" pos="45.00" lane="VODUGES_beg_0" slope="0.00"/>
    </timestep>
    <timestep time="4.80">
        <vehicle id="overtaking" x="31.20" y="1.60" angle="90.00" type="DEFAULT_VEHTYPE" speed="12.48" pos="14.10" lane="-VODUGES_beg_0" slope="0.00"/>
        <vehicle id="stopped" x="45.00" y="-1.60" angle="90.00" type="DEFAULT_VEHTYPE" speed="0.00" pos="45.00" lane="VODUGES_beg_0" slope="0.00"/>
    </timestep>
    <timestep time="5.00">
        <vehicle id="overtaking" x="33.80" y="1.60" angle="90.00" type="DEFAULT_VEHTYPE" speed="13.00" pos="11.50" lane="-VODUGES_beg_0" slope="0.00"/>
        <vehicle id="stopped" x="45.00" y="-1.60" angle="90.00" type="DEFAULT_VEHTYPE" speed="0.00" pos="45.00" lane="VODUGES_beg_0" slope="0.00"/>
    </timestep>
    <timestep time="5.20">
        <vehicle id="overtaking" x="36.50" y="1.60" angle="90.00" type="DEFAULT_VEHTYPE" speed="13.52" pos="8.80" lane="-VODUGES_beg_0" slope="0.00"/>
        <vehicle id="stopped" x="45.00" y="-1.60" angle="90.00" type="DEFAULT_VEHTYPE" speed="0.00" pos="45.00" lane="VODUGES_beg_0" slope="0.00"/>
    </timestep>
    <timestep time="5.40">
        <vehicle id="overtaking" x="39.28" y="1.60" angle="90.00" type="DEFAULT_VEHTYPE" speed="13.89" pos="6.02" lane="-VODUGES_beg_0" slope="0.00"/>
        <vehicle id="stopped" x="45.00" y="-1.60" angle="90.00" type="DEFAULT_VEHTYPE" speed="0.00" pos="45.00" lane="VODUGES_beg_0" slope="0.00"/>
    </timestep>
    <timestep time="5.60">
        <vehicle id="overtaking" x="42.06" y="1.60" angle="90.00" type="DEFAULT_VEHTYPE" speed="13.89" pos="3.24" lane="-VODUGES_beg_0" slope="0.00"/>
        <vehicle id="stopped" x="45.00" y="-1.60" angle="90.00" type="DEFAULT_VEHTYPE" speed="0.00" pos="45.00" lane="VODUGES_beg_0" slope="0.00"/>
    </timestep>
    <timestep time="5.80">
        <vehicle id="overtaking" x="44.84" y="1.60" angle="90.00" type="DEFAULT_VEHTYPE" speed="13.89" pos="0.46" lane="-VODUGES_beg_0" slope="0.00"/>
        <vehicle id="stopped" x="45.00" y="-1.60" angle="90.00" type="DEFAULT_VEHTYPE" speed="0.00" pos="45.00" lane="VODUGES_beg_0" slope="0.00"/>
    </timestep>
    <timestep time="6.00">
        <vehicle id="overtaking" x="47.62" y="1.60" angle="90.00" type="DEFAULT_VEHTYPE" speed="13.89" pos="7.08" lane=":C_3_0" slope="0.00"/>
        <vehicle id="stopped" x="45.00" y="-1.60" angle="90.00" type="DEFAULT_VEHTYPE" speed="0.00" pos="45.00" lane="VODUGES_beg_0" slope="0.00"/>
    </timestep>
    <timestep time="6.20">
        <vehicle id="overtaking" x="50.39" y="1.60" angle="90.00" type="DEFAULT_VEHTYPE" speed="13.89" pos="4.31" lane=":C_3_0" slope="0.00"/>
        <vehicle id="stopped" x="45.00" y="-1.60" angle="90.00" type="DEFAULT_VEHTYPE" speed="0.00" pos="45.00" lane="VODUGES_beg_0" slope="0.00"/>
    </timestep>
    <timestep time="6.40">
        <vehicle id="overtaking" x="53.17" y="-1.60" angle="90.00" type="DEFAULT_VEHTYPE" speed="13.89" pos="7.87" lane=":C_4_0" slope="0.00"/>
        <vehicle id="stopped" x="45.00" y="-1.60" angle="90.00" type="DEFAULT_VEHTYPE" speed="0.00" pos="45.00" lane="VODUGES_beg_0" slope="0.00"/>
    </timestep>
    <timestep time="6.60">
        <vehicle id="overtaking" x="55.95" y="-1.60" angle="90.00" type="DEFAULT_VEHTYPE" speed="13.89" pos="1.25" lane="VODUGES_end_0" slope="0.00"/>
        <vehicle id="stopped" x="45.00" y="-1.60" angle="90.00" type="DEFAULT_VEHTYPE" speed="0.00" pos="45.00" lane="VODUGES_beg_0" slope="0.00"/>
    </timestep>
    <timestep time="6.80">
        <vehicle id="overtaking" x="58.73" y="-1.60" angle="90.00" type="DEFAULT_VEHTYPE" speed="13.89" pos="4.03" lane="VODUGES_end_0" slope="0.00"/>
        <vehicle id="stopped" x="45.00" y="-1.60" angle="90.00" type="DEFAULT_VEHTYPE" speed="0.00" pos="45.00" lane="VODUGES_beg_0" slope="0.00"/>
    </timestep>
    <timestep time="7.00">
        <vehicle id="overtaking" x="61.51" y="-1.60" angle="90.00" type="DEFAULT_VEHTYPE" speed="13.89" pos="6.81" lane="VODUGES_end_0" slope="0.00"/>
        <vehicle id="stopped" x="45.00" y="-1.60" angle="90.00" type="DEFAULT_VEHTYPE" speed="0.00" pos="45.00" lane="VODUGES_beg_0" slope="0.00"/>
    </timestep>
    <timestep time="7.20">
        <vehicle id="overtaking" x="64.28" y="-1.60" angle="90.00" type="DEFAULT_VEHTYPE" speed="13.89" pos="9.58" lane="VODUGES_end_0" slope="0.00"/>
        <vehicle id="stopped" x="45.00" y="-1.60" angle="90.00" type="DEFAULT_VEHTYPE" speed="0.00" pos="45.00" lane="VODUGES_beg_0" slope="0.00"/>
    </timestep>
    <timestep time="7.40">
        <vehicle id="overtaking" x="67.06" y="-1.60" angle="90.00" type="DEFAULT_VEHTYPE" speed="13.89" pos="12.36" lane="VODUGES_end_0" slope="0.00"/>
        <vehicle id="stopped" x="45.00" y="-1.60" angle="90.00" type="DEFAULT_VEHTYPE" speed="0.00" pos="45.00" lane="VODUGES_beg_0" slope="0.00"/>
    </timestep>
    <timestep time="7.60">
        <vehicle id="overtaking" x="69.84" y="-1.60" angle="90.00" type="DEFAULT_VEHTYPE" speed="13.89" pos="15.14" lane="VODUGES_end_0" slope="0.00"/>
        <vehicle id="stopped" x="45.00" y="-1.60" angle="90.00" type="DEFAULT_VEHTYPE" speed="0.00" pos="45.00" lane="VODUGES_beg_0" slope="0.00"/>
    </timestep>
    <timestep time="7.80">
        <vehicle id="overtaking" x="72.62" y="-1.60" angle="90.00" type="DEFAULT_VEHTYPE" speed="13.89" pos="17.92" lane="VODUGES_end_0" slope="0.00"/>
        <vehicle id="stopped" x="45.00" y="-1.60" angle="90.00" type="DEFAULT_VEHTYPE" speed="0.00" pos="45.00" lane="VODUGES_beg_0" slope="0.00"/>
    </timestep>
    <timestep time="8.00">
        <vehicle id="overtaking" x="75.40" y="-1.60" angle="90.00" type="DEFAULT_VEHTYPE" speed="13.89" pos="20.70" lane="VODUGES_end_0" slope="0.00"/>
        <vehicle id="stopped" x="45.00" y="-1.60" angle="90.00" type="DEFAULT_VEHTYPE" speed="0.00" pos="45.00" lane="VODUGES_beg_0" slope="0.00"/>
    </timestep>
    <timestep time="8.20">
        <vehicle id="overtaking" x="78.17" y="-1.60" angle="90.00" type="DEFAULT_VEHTYPE" speed="13.89" pos="23.47" lane="VODUGES_end_0" slope="0.00"/>
        <vehicle id="stopped" x="45.00" y="-1.60" angle="90.00" type="DEFAULT_VEHTYPE" speed="0.00" pos="45.00" lane="VODUGES_beg_0" slope="0.00"/>
    </timestep>
    <timestep time="8.40">
        <vehicle id="overtaking" x="80.95" y="-1.60" angle="90.00" type="DEFAULT_VEHTYPE" speed="13.89" pos="26.25" lane="VODUGES_end_0" slope="0.00"/>
        <vehicle id="stopped" x="45.00" y="-1.60" angle="90.00" type="DEFAULT_VEHTYPE" speed="0.00" pos="45.00" lane="VODUGES_beg_0" slope="0.00"/>
    </timestep>
    <timestep time="8.60">
        <vehicle id="overtaking" x="83.73" y="-1.60" angle="90.00" type="DEFAULT_VEHTYPE" speed="13.89" pos="29.03" lane="VODUGES_end_0" slope="0.00"/>
        <vehicle id="stopped" x="45.00" y="-1.60" angle="90.00" type="DEFAULT_VEHTYPE" speed="0.00" pos="45.00" lane="VODUGES_beg_0" slope="0.00"/>
    </timestep>
    <timestep time="8.80">
        <vehicle id="overtaking" x="86.51" y="-1.60" angle="90.00" type="DEFAULT_VEHTYPE" speed="13.89" pos="31.81" lane="VODUGES_end_0" slope="0.00"/>
        <vehicle id="stopped" x="45.00" y="-1.60" angle="90.00" type="DEFAULT_VEHTYPE" speed="0.00" pos="45.00" lane="VODUGES_beg_0" slope="0.00"/>
    </timestep>
    <timestep time="9.00">
        <vehicle id="overtaking" x="89.29" y="-1.60" angle="90.00" type="DEFAULT_VEHTYPE" speed="13.89" pos="34.59" lane="VODUGES_end_0" slope="0.00"/>
        <vehicle id="stopped" x="45.00" y="-1.60" angle="90.00" type="DEFAULT_VEHTYPE" speed="0.00" pos="45.00" lane="VODUGES_beg_0" slope="0.00"/>
    </timestep>
    <timestep time="9.20">
        <vehicle id="overtaking" x="92.06" y="-1.60" angle="90.00" type="DEFAULT_VEHTYPE" speed="13.89" pos="37.36" lane="VODUGES_end_0" slope="0.00"/>
        <vehicle id="stopped" x="45.00" y="-1.60" angle="90.00" type="DEFAULT_VEHTYPE" speed="0.00" pos="45.00" lane="VODUGES_beg_0" slope="0.00"/>
    </timestep>
    <timestep time="9.40">
        <vehicle id="overtaking" x="94.84" y="-1.60" angle="90.00" type="DEFAULT_VEHTYPE" speed="13.89" pos="40.14" lane="VODUGES_end_0" slope="0.00"/>
        <vehicle id="stopped" x="45.00" y="-1.60" angle="90.00" type="DEFAULT_VEHTYPE" speed="0.00" pos="45.00" lane="VODUGES_beg_0" slope="0.00"/>
    </timestep>
    <timestep time="9.60">
        <vehicle id="overtaking" x="97.62" y="-1.60" angle="90.00" type="DEFAULT_VEHTYPE" speed="13.89" pos="42.92" lane="VODUGES_end_0" slope="0.00"/>
        <vehicle id="stopped" x="45.00" y="-1.60" angle="90.00" type="DEFAULT_VEHTYPE" speed="0.00" pos="45.00" lane="VODUGES_beg_0" slope="0.00"/>
    </timestep>
    <timestep time="9.80">
        <vehicle id="overtaking" x="100.40" y="-1.60" angle="90.00" type="DEFAULT_VEHTYPE" speed="13.89" pos="45.70" lane="VODUGES_end_0" slope="0.00"/>
        <vehicle id="stopped" x="45.00" y="-1.60" angle="90.00" type="DEFAULT_VEHTYPE" speed="0.00" pos="45.00" lane="VODUGES_beg_0" slope="0.00"/>
    </timestep>
    <timestep time="10.00">
        <vehicle id="overtaking" x="103.18" y="-1.60" angle="90.00" type="DEFAULT_VEHTYPE" speed="13.89" pos="48.48" lane="VODUGES_end_0" slope="0.00"/>
        <vehicle id="stopped" x="45.00" y="-1.60" angle="90.00" type="DEFAULT_VEHTYPE" speed="0.00" pos="45.00" lane="VODUGES_beg_0" slope="0.00"/>
    </timestep>
    <timestep time="10.20">
        <vehicle id="overtaking" x="105.95" y="-1.60" angle="90.00" type="DEFAULT_VEHTYPE" speed="13.89" pos="51.25" lane="VODUGES_end_0" slope="0.00"/>
        <vehicle id="stopped" x="45.00" y="-1.60" angle="90.00" type="DEFAULT_VEHTYPE" speed="0.00" pos="45.00" lane="VODUGES_beg_0" slope="0.00"/>
    </timestep>
    <timestep time="10.40">
        <vehicle id="overtaking" x="108.73" y="-1.60" angle="90.00" type="DEFAULT_VEHTYPE" speed="13.89" pos="54.03" lane="VODUGES_end_0" slope="0.00"/>
        <vehicle id="stopped" x="45.00" y="-1.60" angle="90.00" type="DEFAULT_VEHTYPE" speed="0.00" pos="45.00" lane="VODUGES_beg_0" slope="0.00"/>
    </timestep>
    <timestep time="10.60">
        <vehicle id="overtaking" x="111.51" y="-1.60" angle="90.00" type="DEFAULT_VEHTYPE" speed="13.89" pos="56.81" lane="VODUGES_end_0" slope="0.00"/>
        <vehicle id="stopped" x="45.00" y="-1.60" angle="90.00" type="DEFAULT_VEHTYPE" speed="0.00" pos="45.00" lane="VODUGES_beg_0" slope="0.00"/>
    </timestep>
    <timestep time="10.80">
        <vehicle id="overtaking" x="114.29" y="-1.60" angle="90.00" type="DEFAULT_VEHTYPE" speed="13.89" pos="59.59" lane="VODUGES_end_0" slope="0.00"/>
        <vehicle id="stopped" x="45.00" y="-1.60" angle="90.00" type="DEFAULT_VEHTYPE" speed="0.00" pos="45.00" lane="VODUGES_beg_0" slope="0.00"/>
    </timestep>
    <timestep time="11.00">
        <vehicle id="overtaking" x="117.07" y="-1.60" angle="90.00" type="DEFAULT_VEHTYPE" speed="13.89" pos="62.37" lane="VODUGES_end_0" slope="0.00"/>
        <vehicle id="stopped" x="45.00" y="-1.60" angle="90.00" type="DEFAULT_VEHTYPE" speed="0.00" pos="45.00" lane="VODUGES_beg_0" slope="0.00"/>
    </timestep>
    <timestep time="11.20">
        <vehicle id="overtaking" x="119.84" y="-1.60" angle="90.00" type="DEFAULT_VEHTYPE" speed="13.89" pos="65.14" lane="VODUGES_end_0" slope="0.00"/>
        <vehicle id="stopped" x="45.00" y="-1.60" angle="90.00" type="DEFAULT_VEHTYPE" speed="0.00" pos="45.00" lane="VODUGES_beg_0" slope="0.00"/>
    </timestep>
    <timestep time="11.40">
        <vehicle id="overtaking" x="122.62" y="-1.60" angle="90.00" type="DEFAULT_VEHTYPE" speed="13.89" pos="67.92" lane="VODUGES_end_0" slope="0.00"/>
        <vehicle id="stopped" x="45.00" y="-1.60" angle="90.00" type="DEFAULT_VEHTYPE" speed="0.00" pos="45.00" lane="VODUGES_beg_0" slope="0.00"/>
    </timestep>
    <timestep time="11.60">
        <vehicle id="overtaking" x="125.40" y="-1.60" angle="90.00" type="DEFAULT_VEHTYPE" speed="13.89" pos="70.70" lane="VODUGES_end_0" slope="0.00"/>
        <vehicle id="stopped" x="45.00" y="-1.60" angle="90.00" type="DEFAULT_VEHTYPE" speed="0.00" pos="45.00" lane="VODUGES_beg_0" slope="0.00"/>
    </timestep>
    <timestep time="11.80">
        <vehicle id="overtaking" x="128.18" y="-1.60" angle="90.00" type="DEFAULT_VEHTYPE" speed="13.89" pos="73.48" lane="VODUGES_end_0" slope="0.00"/>
        <vehicle id="stopped" x="45.00" y="-1.60" angle="90.00" type="DEFAULT_VEHTYPE" speed="0.00" pos="45.00" lane="VODUGES_beg_0" slope="0.00"/>
    </timestep>
    <timestep time="12.00">
        <vehicle id="overtaking" x="130.96" y="-1.60" angle="90.00" type="DEFAULT_VEHTYPE" speed="13.89" pos="76.26" lane="VODUGES_end_0" slope="0.00"/>
        <vehicle id="stopped" x="45.00" y="-1.60" angle="90.00" type="DEFAULT_VEHTYPE" speed="0.00" pos="45.00" lane="VODUGES_beg_0" slope="0.00"/>
    </timestep>
    <timestep time="12.20">
        <vehicle id="overtaking" x="133.73" y="-1.60" angle="90.00" type="DEFAULT_VEHTYPE" speed="13.89" pos="79.03" lane="VODUGES_end_0" slope="0.00"/>
        <vehicle id="stopped" x="45.00" y="-1.60" angle="90.00" type="DEFAULT_VEHTYPE" speed="0.00" pos="45.00" lane="VODUGES_beg_0" slope="0.00"/>
    </timestep>
    <timestep time="12.40">
        <vehicle id="overtaking" x="136.51" y="-1.60" angle="90.00" type="DEFAULT_VEHTYPE" speed="13.89" pos="81.81" lane="VODUGES_end_0" slope="0.00"/>
        <vehicle id="stopped" x="45.00" y="-1.60" angle="90.00" type="DEFAULT_VEHTYPE" speed="0.00" pos="45.00" lane="VODUGES_beg_0" slope="0.00"/>
    </timestep>
    <timestep time="12.60">
        <vehicle id="overtaking" x="139.29" y="-1.60" angle="90.00" type="DEFAULT_VEHTYPE" speed="13.89" pos="84.59" lane="VODUGES_end_0" slope="0.00"/>
        <vehicle id="stopped" x="45.00" y="-1.60" angle="90.00" type="DEFAULT_VEHTYPE" speed="0.00" pos="45.00" lane="VODUGES_beg_0" slope="0.00"/>
    </timestep>
    <timestep time="12.80">
        <vehicle id="overtaking" x="142.07" y="-1.60" angle="90.00" type="DEFAULT_VEHTYPE" speed="13.89" pos="87.37" lane="VODUGES_end_0" slope="0.00"/>
        <vehicle id="stopped" x="45.00" y="-1.60" angle="90.00" type="DEFAULT_VEHTYPE" speed="0.00" pos="45.00" lane="VODUGES_beg_0" slope="0.00"/>
    </timestep>
    <timestep time="13.00">
        <vehicle id="overtaking" x="144.85" y="-1.60" angle="90.00" type="DEFAULT_VEHTYPE" speed="13.89" pos="90.15" lane="VODUGES_end_0" slope="0.00"/>
        <vehicle id="stopped" x="45.00" y="-1.60" angle="90.00" type="DEFAULT_VEHTYPE" speed="0.00" pos="45.00" lane="VODUGES_beg_0" slope="0.00"/>
    </timestep>
    <timestep time="13.20">
        <vehicle id="overtaking" x="147.62" y="-1.60" angle="90.00" type="DEFAULT_VEHTYPE" speed="13.89" pos="92.92" lane="VODUGES_end_0" slope="0.00"/>
        <vehicle id="stopped" x="45.00" y="-1.60" angle="90.00" type="DEFAULT_VEHTYPE" speed="0.00" pos="45.00" lane="VODUGES_beg_0" slope="0.00"/>
    </timestep>
    <timestep time="13.40">
        <vehicle id="overtaking" x="150.40" y="-1.60" angle="90.00" type="DEFAULT_VEHTYPE" speed="13.89" pos="95.70" lane="VODUGES_end_0" slope="0.00"/>
        <vehicle id="stopped" x="45.00" y="-1.60" angle="90.00" type="DEFAULT_VEHTYPE" speed="0.00" pos="45.00" lane="VODUGES_beg_0" slope="0.00"/>
    </timestep>
    <timestep time="13.60">
        <vehicle id="overtaking" x="153.18" y="-1.60" angle="90.00" type="DEFAULT_VEHTYPE" speed="13.89" pos="98.48" lane="VODUGES_end_0" slope="0.00"/>
        <vehicle id="stopped" x="45.00" y="-1.60" angle="90.00" type="DEFAULT_VEHTYPE" speed="0.00" pos="45.00" lane="VODUGES_beg_0" slope="0.00"/>
    </timestep>
    <timestep time="13.80">
        <vehicle id="overtaking" x="155.96" y="-1.60" angle="90.00" type="DEFAULT_VEHTYPE" speed="13.89" pos="101.26" lane="VODUGES_end_0" slope="0.00"/>
        <vehicle id="stopped" x="45.00" y="-1.60" angle="90.00" type="DEFAULT_VEHTYPE" speed="0.00" pos="45.00" lane="VODUGES_beg_0" slope="0.00"/>
    </timestep>
    <timestep time="14.00">
        <vehicle id="overtaking" x="158.74" y="-1.60" angle="90.00" type="DEFAULT_VEHTYPE" speed="13.89" pos="104.04" lane="VODUGES_end_0" slope="0.00"/>
        <vehicle id="stopped" x="45.00" y="-1.60" angle="90.00" type="DEFAULT_VEHTYPE" speed="0.00" pos="45.00" lane="VODUGES_beg_0" slope="0.00"/>
    </timestep>
    <timestep time="14.20">
        <vehicle id="overtaking" x="161.51" y="-1.60" angle="90.00" type="DEFAULT_VEHTYPE" speed="13.89" pos="106.81" lane="VODUGES_end_0" slope="0.00"/>
        <vehicle id="stopped" x="45.00" y="-1.60" angle="90.00" type="DEFAULT_VEHTYPE" speed="0.00" pos="45.00" lane="VODUGES_beg_0" slope="0.00"/>
    </timestep>
    <timestep time="14.40">
        <vehicle id="overtaking" x="164.29" y="-1.60" angle="90.00" type="DEFAULT_VEHTYPE" speed="13.89" pos="109.59" lane="VODUGES_end_0" slope="0.00"/>
        <vehicle id="stopped" x="45.00" y="-1.60" angle="90.00" type="DEFAULT_VEHTYPE" speed="0.00" pos="45.00" lane="VODUGES_beg_0" slope="0.00"/>
    </timestep>
    <timestep time="14.60">
        <vehicle id="overtaking" x="167.07" y="-1.60" angle="90.00" type="DEFAULT_VEHTYPE" speed="13.89" pos="112.37" lane="VODUGES_end_0" slope="0.00"/>
        <vehicle id="stopped" x="45.00" y="-1.60" angle="90.00" type="DEFAULT_VEHTYPE" speed="0.00" pos="45.00" lane="VODUGES_beg_0" slope="0.00"/>
    </timestep>
    <timestep time="14.80">
        <vehicle id="overtaking" x="169.85" y="-1.60" angle="90.00" type="DEFAULT_VEHTYPE" speed="13.89" pos="115.15" lane="VODUGES_end_0" slope="0.00"/>
        <vehicle id="stopped" x="45.00" y="-1.60" angle="90.00" type="DEFAULT_VEHTYPE" speed="0.00" pos="45.00" lane="VODUGES_beg_0" slope="0.00"/>
    </timestep>
    <timestep time="15.00">
        <vehicle id="overtaking" x="172.63" y="-1.60" angle="90.00" type="DEFAULT_VEHTYPE" speed="13.89" pos="117.93" lane="VODUGES_end_0" slope="0.00"/>
        <vehicle id="stopped" x="45.00" y="-1.60" angle="90.00" type="DEFAULT_VEHTYPE" speed="0.00" pos="45.00" lane="VODUGES_beg_0" slope="0.00"/>
    </timestep>
    <timestep time="15.20">
        <vehicle id="overtaking" x="175.40" y="-1.60" angle="90.00" type="DEFAULT_VEHTYPE" speed="13.89" pos="120.70" lane="VODUGES_end_0" slope="0.00"/>
        <vehicle id="stopped" x="45.00" y="-1.60" angle="90.00" type="DEFAULT_VEHTYPE" speed="0.00" pos="45.00" lane="VODUGES_beg_0" slope="0.00"/>
    </timestep>
    <timestep time="15.40">
        <vehicle id="overtaking" x="178.18" y="-1.60" angle="90.00" type="DEFAULT_VEHTYPE" speed="13.89" pos="123.48" lane="VODUGES_end_0" slope="0.00"/>
        <vehicle id="stopped" x="45.00" y="-1.60" angle="90.00" type="DEFAULT_VEHTYPE" speed="0.00" pos="45.00" lane="VODUGES_beg_0" slope="0.00"/>
    </timestep>
    <timestep time="15.60">
        <vehicle id="overtaking" x="180.96" y="-1.60" angle="90.00" type="DEFAULT_VEHTYPE" speed="13.89" pos="126.26" lane="VODUGES_end_0" slope="0.00"/>
        <vehicle id="stopped" x="45.00" y="-1.60" angle="90.00" type="DEFAULT_VEHTYPE" speed="0.00" pos="45.00" lane="VODUGES_beg_0" slope="0.00"/>
    </timestep>
    <timestep time="15.80">
        <vehicle id="overtaking" x="183.74" y="-1.60" angle="90.00" type="DEFAULT_VEHTYPE" speed="13.89" pos="129.04" lane="VODUGES_end_0" slope="0.00"/>
        <vehicle id="stopped" x="45.00" y="-1.60" angle="90.00" type="DEFAULT_VEHTYPE" speed="0.00" pos="45.00" lane="VODUGES_beg_0" slope="0.00"/>
    </timestep>
    <timestep time="16.00">
        <vehicle id="overtaking" x="186.52" y="-1.60" angle="90.00" type="DEFAULT_VEHTYPE" speed="13.89" pos="131.82" lane="VODUGES_end_0" slope="0.00"/>
        <vehicle id="stopped" x="45.00" y="-1.60" angle="90.00" type="DEFAULT_VEHTYPE" speed="0.00" pos="45.00" lane="VODUGES_beg_0" slope="0.00"/>
    </timestep>
    <timestep time="16.20">
        <vehicle id="overtaking" x="189.29" y="-1.60" angle="90.00" type="DEFAULT_VEHTYPE" speed="13.89" pos="134.59" lane="VODUGES_end_0" slope="0.00"/>
        <vehicle id="stopped" x="45.00" y="-1.60" angle="90.00" type="DEFAULT_VEHTYPE" speed="0.00" pos="45.00" lane="VODUGES_beg_0" slope="0.00"/>
    </timestep>
    <timestep time="16.40">
        <vehicle id="overtaking" x="192.07" y="-1.60" angle="90.00" type="DEFAULT_VEHTYPE" speed="13.89" pos="137.37" lane="VODUGES_end_0" slope="0.00"/>
        <vehicle id="stopped" x="45.00" y="-1.60" angle="90.00" type="DEFAULT_VEHTYPE" speed="0.00" pos="45.00" lane="VODUGES_beg_0" slope="0.00"/>
    </timestep>
    <timestep time="16.60">
        <vehicle id="overtaking" x="194.85" y="-1.60" angle="90.00" type="DEFAULT_VEHTYPE" speed="13.89" pos="140.15" lane="VODUGES_end_0" slope="0.00"/>