<?xml version="1.0" encoding="UTF-8"?>

<!-- generated on 2025-12-09T10:39:41.178764+01:00 by Eclipse SUMO sumo v1_25_0+0274-0826fbe6a65
This data file and the accompanying materials
are made available under the terms of the Eclipse Public License v2.0
which accompanies this distribution, and is available at
http://www.eclipse.org/legal/epl-v20.html
This file may also be made available under the following Secondary
Licenses when the conditions for such availability set forth in the Eclipse
Public License 2.0 are satisfied: GNU General Public License, version 2
or later which is available at
https://www.gnu.org/licenses/old-licenses/gpl-2.0-standalone.html
SPDX-License-Identifier: EPL-2.0 OR GPL-2.0-or-later
<sumoConfiguration xmlns:xsi="http://www.w3.org/2001/XMLSchema-instance" xsi:noNamespaceSchemaLocation="http://sumo.dlr.de/xsd/sumoConfiguration.xsd">

    <input>
        <net-file value="net2.net.xml"/>
        <route-files value="input_routes.rou.xml"/>
        <additional-files value="input_additional.add.xml"/>
    </input>

    <output>
        <write-license value="true"/>
        <vehroute-output value="vehroutes.xml"/>
    </output>

    <time>
        <begin value="0"/>
    </time>

    <processing>
        <collision.action value="warn"/>
        <default.speeddev value="0"/>
    </processing>

    <report>
        <xml-validation value="never"/>
        <duration-log.disable value="true"/>
        <no-step-log value="true"/>
    </report>

</sumoConfiguration>
-->

<routes xmlns:xsi="http://www.w3.org/2001/XMLSchema-instance" xsi:noNamespaceSchemaLocation="http://sumo.dlr.de/xsd/routes_file.xsd">
    <vehicle id="v.0" type="car" depart="1.00" departLane="2" arrival="18.00">
        <routeDistribution>
            <route replacedOnEdge="SC" reason="rerouter" replacedAtTime="1.00" probability="0" edges="SC CN"/>
            <route edges="SC CW"/>
        </routeDistribution>
    </vehicle>

    <vehicle id="v.1" type="car" depart="2.00" departLane="0" arrival="19.00">
        <routeDistribution>
            <route replacedOnEdge="SC" reason="rerouter" replacedAtTime="2.00" probability="0" edges="SC CN"/>
            <route edges="SC CN"/>
        </routeDistribution>
    </vehicle>

    <vehicle id="v.3" type="car" depart="6.00" departLane="1" arrival="22.00">
        <routeDistribution>
            <route replacedOnEdge="SC" reason="rerouter" replacedAtTime="6.00" probability="0" edges="SC CN"/>
            <route edges="SC CE"/>
        </routeDistribution>
    </vehicle>

    <vehicle id="v.2" type="car" depart="4.00" departLane="1" arrival="23.00">
        <routeDistribution>
            <route replacedOnEdge="SC" reason="rerouter" replacedAtTime="4.00" probability="0" edges="SC CN"/>
            <route edges="SC CW"/>
        </routeDistribution>
    </vehicle>

    <vehicle id="v.5" type="car" depart="8.00" departLane="0" arrival="25.00">
        <routeDistribution>
            <route replacedOnEdge="SC" reason="rerouter" replacedAtTime="8.00" probability="0" edges="SC CN"/>
            <route edges="SC CN"/>
        </routeDistribution>
    </vehicle>

    <vehicle id="v.4" type="car" depart="7.00" departLane="2" arrival="26.00">
        <routeDistribution>
            <route replacedOnEdge="SC" reason="rerouter" replacedAtTime="7.00" probability="0" edges="SC CN"/>
            <route edges="SC CW"/>
        </routeDistribution>
    </vehicle>

    <vehicle id="v.7" type="car" depart="10.00" departLane="1" arrival="26.00">
        <routeDistribution>
            <route replacedOnEdge="SC" reason="rerouter" replacedAtTime="10.00" probability="0" edges="SC CN"/>
            <route edges="SC CE"/>
        </routeDistribution>
    </vehicle>

    <vehicle id="v.6" type="car" depart="9.00" departLane="2" arrival="27.00">
        <routeDistribution>
            <route replacedOnEdge="SC" reason="rerouter" replacedAtTime="9.00" probability="0" edges="SC CN"/>
            <route edges="SC CW"/>
        </routeDistribution>
    </vehicle>

    <vehicle id="v.8" type="car" depart="11.00" departLane="0" arrival="29.00">
        <routeDistribution>
            <route replacedOnEdge="SC" reason="rerouter" replacedAtTime="11.00" probability="0" edges="SC CN"/>
            <route edges="SC CN"/>
        </routeDistribution>
    </vehicle>

    <vehicle id="v.9" type="car" depart="13.00" departLane="2" arrival="31.00">
        <routeDistribution>
            <route replacedOnEdge="SC" reason="rerouter" replacedAtTime="13.00" probability="0" edges="SC CN"/>
            <route edges="SC CN"/>
        </routeDistribution>
    </vehicle>

    <vehicle id="v.10" type="car" depart="16.00" departLane="0" arrival="33.00">
        <routeDistribution>
            <route replacedOnEdge="SC" reason="rerouter" replacedAtTime="16.00" probability="0" edges="SC CN"/>
            <route edges="SC CN"/>
        </routeDistribution>
    </vehicle>

    <vehicle id="v.12" type="car" depart="17.00" departLane="2" arrival="35.00">
        <routeDistribution>
            <route replacedOnEdge="SC" reason="rerouter" replacedAtTime="17.00" probability="0" edges="SC CN"/>
            <route edges="SC CN"/>
        </routeDistribution>
    </vehicle>

    <vehicle id="v.11" type="car" depart="17.00" departLane="0" arrival="37.00">
        <routeDistribution>
            <route replacedOnEdge="SC" reason="rerouter" replacedAtTime="17.00" probability="0" edges="SC CN"/>
            <route edges="SC CN"/>
        </routeDistribution>
    </vehicle>

    <vehicle id="v.15" type="car" depart="20.00" departLane="2" arrival="37.00">
        <routeDistribution>
            <route replacedOnEdge="SC" reason="rerouter" replacedAtTime="20.00" probability="0" edges="SC CN"/>
            <route edges="SC CW"/>
        </routeDistribution>
    </vehicle>

    <vehicle id="v.13" type="car" depart="18.00" departLane="1" arrival="39.00">
        <routeDistribution>
            <route replacedOnEdge="SC" reason="rerouter" replacedAtTime="18.00" probability="0" edges="SC CN"/>
            <route edges="SC CN"/>
        </routeDistribution>
    </vehicle>

    <vehicle id="v.14" type="car" depart="22.00" departLane="2" arrival="41.00">
        <routeDistribution>
            <route replacedOnEdge="SC" reason="rerouter" replacedAtTime="22.00" probability="0" edges="SC CN"/>
            <route edges="SC CN"/>
        </routeDistribution>
    </vehicle>

    <vehicle id="v.17" type="car" depart="26.00" departLane="0" arrival="43.00">
        <routeDistribution>
            <route replacedOnEdge="SC" reason="rerouter" replacedAtTime="26.00" probability="0" edges="SC CN"/>
            <route edges="SC CE"/>
        </routeDistribution>
    </vehicle>

    <vehicle id="v.19" type="car" depart="24.00" departLane="0" arrival="43.00">
        <routeDistribution>
            <route replacedOnEdge="SC" reason="rerouter" replacedAtTime="24.00" probability="0" edges="SC CN"/>
            <route edges="SC CN"/>
        </routeDistribution>
    </vehicle>

    <vehicle id="v.20" type="car" depart="27.00" departLane="2" arrival="45.00">
        <routeDistribution>
            <route replacedOnEdge="SC" reason="rerouter" replacedAtTime="27.00" probability="0" edges="SC CN"/>
            <route edges="SC CN"/>
        </routeDistribution>
    </vehicle>

    <vehicle id="v.18" type="car" depart="29.00" departLane="2" arrival="47.00">
        <routeDistribution>
            <route replacedOnEdge="SC" reason="rerouter" replacedAtTime="29.00" probability="0" edges="SC CN"/>
            <route edges="SC CW"/>
        </routeDistribution>
    </vehicle>

    <vehicle id="v.22" type="car" depart="32.00" departLane="0" arrival="48.00">
        <routeDistribution>
            <route replacedOnEdge="SC" reason="rerouter" replacedAtTime="32.00" probability="0" edges="SC CN"/>
            <route edges="SC CE"/>
        </routeDistribution>
    </vehicle>

    <vehicle id="v.16" type="car" depart="24.00" departLane="1" arrival="49.00">
        <routeDistribution>
            <route replacedOnEdge="SC" reason="rerouter" replacedAtTime="24.00" probability="0" edges="SC CN"/>
            <route edges="SC CN"/>
        </routeDistribution>
    </vehicle>

    <vehicle id="v.23" type="car" depart="30.00" departLane="0" arrival="49.00">
        <routeDistribution>
            <route replacedOnEdge="SC" reason="rerouter" replacedAtTime="30.00" probability="0" edges="SC CN"/>
            <route edges="SC CW"/>
        </routeDistribution>
    </vehicle>

    <vehicle id="v.24" type="car" depart="32.00" departLane="2" arrival="51.00">
        <routeDistribution>
            <route replacedOnEdge="SC" reason="rerouter" replacedAtTime="32.00" probability="0" edges="SC CN"/>
            <route edges="SC CW"/>
        </routeDistribution>
    </vehicle>

    <vehicle id="v.27" type="car" depart="34.00" departLane="1" arrival="51.00">
        <routeDistribution>
            <route replacedOnEdge="SC" reason="rerouter" replacedAtTime="34.00" probability="0" edges="SC CN"/>
            <route edges="SC CN"/>
        </routeDistribution>
    </vehicle>

    <vehicle id="v.25" type="car" depart="36.00" departLane="0" arrival="52.00">
        <routeDistribution>
            <route replacedOnEdge="SC" reason="rerouter" replacedAtTime="36.00" probability="0" edges="SC CN"/>
            <route edges="SC CE"/>
        </routeDistribution>
    </vehicle>

    <vehicle id="v.21" type="car" depart="35.00" departLane="2" arrival="53.00">
        <routeDistribution>
            <route replacedOnEdge="SC" reason="rerouter" replacedAtTime="35.00" probability="0" edges="SC CN"/>
            <route edges="SC CE"/>
        </routeDistribution>
    </vehicle>

    <vehicle id="v.26" type="car" depart="38.00" departLane="0" arrival="55.00">
        <routeDistribution>
            <route replacedOnEdge="SC" reason="rerouter" replacedAtTime="38.00" probability="0" edges="SC CN"/>
            <route edges="SC CE"/>
        </routeDistribution>
    </vehicle>

    <vehicle id="v.28" type="car" depart="36.00" departLane="1" arrival="57.00">
        <routeDistribution>
            <route replacedOnEdge="SC" reason="rerouter" replacedAtTime="36.00" probability="0" edges="SC CN"/>
            <route edges="SC CE"/>
        </routeDistribution>
    </vehicle>

    <vehicle id="v.29" type="car" depart="41.00" departLane="0" arrival="59.00">
        <routeDistribution>
            <route replacedOnEdge="SC" reason="rerouter" replacedAtTime="41.00" probability="0" edges="SC CN"/>
            <route edges="SC CE"/>
        </routeDistribution>
    </vehicle>

    <vehicle id="v.30" type="car" depart="39.00" departLane="2" arrival="59.00">
        <routeDistribution>
            <route replacedOnEdge="SC" reason="rerouter" replacedAtTime="39.00" probability="0" edges="SC CN"/>
            <route edges="SC CN"/>
        </routeDistribution>
    </vehicle>

    <vehicle id="v.31" type="car" depart="43.00" departLane="2" arrival="61.00">
        <routeDistribution>
            <route replacedOnEdge="SC" reason="rerouter" replacedAtTime="43.00" probability="0" edges="SC CN"/>
            <route edges="SC CN"/>
        </routeDistribution>
    </vehicle>

    <vehicle id="v.32" type="car" depart="41.00" departLane="1" arrival="61.00">
        <routeDistribution>
            <route replacedOnEdge="SC" reason="rerouter" replacedAtTime="41.00" probability="0" edges="SC CN"/>
            <route edges="SC CE"/>
        </routeDistribution>
    </vehicle>

    <vehicle id="v.33" type="car" depart="44.00" departLane="0" arrival="64.00">
        <routeDistribution>
            <route replacedOnEdge="SC" reason="rerouter" replacedAtTime="44.00" probability="0" edges="SC CN"/>
            <route edges="SC CN"/>
        </routeDistribution>
    </vehicle>

    <vehicle id="v.35" type="car" depart="49.00" departLane="0" arrival="66.00">
        <routeDistribution>
            <route replacedOnEdge="SC" reason="rerouter" replacedAtTime="49.00" probability="0" edges="SC CN"/>
            <route edges="SC CE"/>
        </routeDistribution>
    </vehicle>

    <vehicle id="v.34" type="car" depart="47.00" departLane="1" arrival="67.00">
        <routeDistribution>
            <route replacedOnEdge="SC" reason="rerouter" replacedAtTime="47.00" probability="0" edges="SC CN"/>
            <route edges="SC CW"/>
        </routeDistribution>
    </vehicle>

    <vehicle id="v.36" type="car" depart="46.00" departLane="2" arrival="68.00">
        <routeDistribution>
            <route replacedOnEdge="SC" reason="rerouter" replacedAtTime="46.00" probability="0" edges="SC CN"/>
            <route edges="SC CE"/>
        </routeDistribution>
    </vehicle>

    <vehicle id="v.38" type="car" depart="52.00" departLane="2" arrival="70.00">
        <routeDistribution>
            <route replacedOnEdge="SC" reason="rerouter" replacedAtTime="52.00" probability="0" edges="SC CN"/>
            <route edges="SC CN"/>
        </routeDistribution>
    </vehicle>

    <vehicle id="v.40" type="car" depart="52.00" departLane="0" arrival="70.00">
        <routeDistribution>
            <route replacedOnEdge="SC" reason="rerouter" replacedAtTime="52.00" probability="0" edges="SC CN"/>
            <route edges="SC CE"/>
        </routeDistribution>
    </vehicle>

    <vehicle id="v.41" type="car" depart="54.00" departLane="1" arrival="72.00">
        <routeDistribution>
            <route replacedOnEdge="SC" reason="rerouter" replacedAtTime="54.00" probability="0" edges="SC CN"/>
            <route edges="SC CE"/>
        </routeDistribution>
    </vehicle>

    <vehicle id="v.42" type="car" depart="54.00" departLane="2" arrival="72.00">
        <routeDistribution>
            <route replacedOnEdge="SC" reason="rerouter" replacedAtTime="54.00" probability="0" edges="SC CN"/>
            <route edges="SC CW"/>
        </routeDistribution>
    </vehicle>

    <vehicle id="v.45" type="car" depart="57.00" departLane="2" arrival="76.00">
        <routeDistribution>
            <route replacedOnEdge="SC" reason="rerouter" replacedAtTime="57.00" probability="0" edges="SC CN"/>
            <route edges="SC CW"/>
        </routeDistribution>
    </vehicle>

    <vehicle id="v.39" type="car" depart="56.00" departLane="0" arrival="78.00">
        <routeDistribution>
            <route replacedOnEdge="SC" reason="rerouter" replacedAtTime="56.00" probability="0" edges="SC CN"/>
            <route edges="SC CW"/>
        </routeDistribution>
    </vehicle>

    <vehicle id="v.47" type="car" depart="60.00" departLane="1" arrival="78.00">
        <routeDistribution>
            <route replacedOnEdge="SC" reason="rerouter" replacedAtTime="60.00" probability="0" edges="SC CN"/>
            <route edges="SC CE"/>
        </routeDistribution>
    </vehicle>

    <vehicle id="v.43" type="car" depart="58.00" departLane="0" arrival="79.00">
        <routeDistribution>
            <route replacedOnEdge="SC" reason="rerouter" replacedAtTime="58.00" probability="0" edges="SC CN"/>
            <route edges="SC CW"/>
        </routeDistribution>
    </vehicle>

    <vehicle id="v.46" type="car" depart="60.00" departLane="2" arrival="81.00">
        <routeDistribution>
            <route replacedOnEdge="SC" reason="rerouter" replacedAtTime="60.00" probability="0" edges="SC CN"/>
            <route edges="SC CW"/>
        </routeDistribution>
    </vehicle>

    <vehicle id="v.44" type="car" depart="66.00" departLane="0" arrival="82.00">
        <routeDistribution>
            <route replacedOnEdge="SC" reason="rerouter" replacedAtTime="66.00" probability="0" edges="SC CN"/>
            <route edges="SC CE"/>
        </routeDistribution>
    </vehicle>

    <vehicle id="v.48" type="car" depart="64.00" departLane="0" arrival="83.00">
        <routeDistribution>
            <route replacedOnEdge="SC" reason="rerouter" replacedAtTime="64.00" probability="0" edges="SC CN"/>
            <route edges="SC CW"/>
        </routeDistribution>
    </vehicle>

    <vehicle id="v.49" type="car" depart="63.00" departLane="2" arrival="85.00">
        <routeDistribution>
            <route replacedOnEdge="SC" reason="rerouter" replacedAtTime="63.00" probability="0" edges="SC CN"/>
            <route edges="SC CW"/>
        </routeDistribution>
    </vehicle>

    <vehicle id="v.56" type="car" depart="69.00" departLane="0" arrival="85.00">
        <routeDistribution>
            <route replacedOnEdge="SC" reason="rerouter" replacedAtTime="69.00" probability="0" edges="SC CN"/>
            <route edges="SC CE"/>
        </routeDistribution>
    </vehicle>

    <vehicle id="v.50" type="car" depart="66.00" departLane="2" arrival="86.00">
        <routeDistribution>
            <route replacedOnEdge="SC" reason="rerouter" replacedAtTime="66.00" probability="0" edges="SC CN"/>
            <route edges="SC CE"/>
        </routeDistribution>
    </vehicle>

    <vehicle id="v.37" type="car" depart="62.00" departLane="1" arrival="87.00">
        <routeDistribution>
            <route replacedOnEdge="SC" reason="rerouter" replacedAtTime="62.00" probability="0" edges="SC CN"/>
            <route edges="SC CW"/>
        </routeDistribution>
    </vehicle>

    <vehicle id="v.53" type="car" depart="71.00" departLane="0" arrival="88.00">
        <routeDistribution>
            <route replacedOnEdge="SC" reason="rerouter" replacedAtTime="71.00" probability="0" edges="SC CN"/>
            <route edges="SC CE"/>
        </routeDistribution>
    </vehicle>

    <vehicle id="v.51" type="car" depart="69.00" departLane="1" arrival="89.00">
        <routeDistribution>
            <route replacedOnEdge="SC" reason="rerouter" replacedAtTime="69.00" probability="0" edges="SC CN"/>
            <route edges="SC CN"/>
        </routeDistribution>
    </vehicle>

    <vehicle id="v.54" type="car" depart="72.00" departLane="2" arrival="89.00">
        <routeDistribution>
            <route replacedOnEdge="SC" reason="rerouter" replacedAtTime="72.00" probability="0" edges="SC CN"/>
            <route edges="SC CE"/>
        </routeDistribution>
    </vehicle>

    <vehicle id="v.64" type="car" depart="74.00" departLane="0" arrival="91.00">
        <routeDistribution>
            <route replacedOnEdge="SC" reason="rerouter" replacedAtTime="74.00" probability="0" edges="SC CN"/>
            <route edges="SC CE"/>
        </routeDistribution>
    </vehicle>

    <vehicle id="v.52" type="car" depart="76.00" departLane="0" arrival="93.00">
        <routeDistribution>
            <route replacedOnEdge="SC" reason="rerouter" replacedAtTime="76.00" probability="0" edges="SC CN"/>
            <route edges="SC CE"/>
        </routeDistribution>
    </vehicle>

    <vehicle id="v.55" type="car" depart="74.00" departLane="1" arrival="93.00">
        <routeDistribution>
            <route replacedOnEdge="SC" reason="rerouter" replacedAtTime="74.00" probability="0" edges="SC CN"/>
            <route edges="SC CN"/>
        </routeDistribution>
    </vehicle>

    <vehicle id="v.58" type="car" depart="76.00" departLane="2" arrival="95.00">
        <routeDistribution>
            <route replacedOnEdge="SC" reason="rerouter" replacedAtTime="76.00" probability="0" edges="SC CN"/>
            <route edges="SC CE"/>
        </routeDistribution>
    </vehicle>

    <vehicle id="v.59" type="car" depart="79.00" departLane="0" arrival="96.00">
        <routeDistribution>
            <route replacedOnEdge="SC" reason="rerouter" replacedAtTime="79.00" probability="0" edges="SC CN"/>
            <route edges="SC CN"/>
        </routeDistribution>
    </vehicle>

    <vehicle id="v.60" type="car" depart="80.00" departLane="2" arrival="97.00">
        <routeDistribution>
            <route replacedOnEdge="SC" reason="rerouter" replacedAtTime="80.00" probability="0" edges="SC CN"/>
            <route edges="SC CE"/>
        </routeDistribution>
    </vehicle>

    <vehicle id="v.63" type="car" depart="78.00" departLane="1" arrival="99.00">
        <routeDistribution>
            <route replacedOnEdge="SC" reason="rerouter" replacedAtTime="78.00" probability="0" edges="SC CN"/>
            <route edges="SC CE"/>
        </routeDistribution>
    </vehicle>

    <vehicle id="v.68" type="car" depart="82.00" departLane="2" arrival="100.00">
        <routeDistribution>
            <route replacedOnEdge="SC" reason="rerouter" replacedAtTime="82.00" probability="0" edges="SC CN"/>
            <route edges="SC CW"/>
        </routeDistribution>
    </vehicle>

    <vehicle id="v.57" type="car" depart="84.00" departLane="1" arrival="101.00">
        <routeDistribution>
            <route replacedOnEdge="SC" reason="rerouter" replacedAtTime="84.00" probability="0" edges="SC CN"/>
            <route edges="SC CN"/>
        </routeDistribution>
    </vehicle>

    <vehicle id="v.61" type="car" depart="82.00" departLane="1" arrival="101.00">
        <routeDistribution>
            <route replacedOnEdge="SC" reason="rerouter" replacedAtTime="82.00" probability="0" edges="SC CN"/>
            <route edges="SC CE"/>
        </routeDistribution>
    </vehicle>

    <vehicle id="v.62" type="car" depart="86.00" departLane="1" arrival="103.00">
        <routeDistribution>
            <route replacedOnEdge="SC" reason="rerouter" replacedAtTime="86.00" probability="0" edges="SC CN"/>
            <route edges="SC CN"/>
        </routeDistribution>
    </vehicle>

    <vehicle id="v.66" type="car" depart="87.00" departLane="0" arrival="103.00">
        <routeDistribution>
            <route replacedOnEdge="SC" reason="rerouter" replacedAtTime="87.00" probability="0" edges="SC CN"/>
            <route edges="SC CE"/>
        </routeDistribution>
    </vehicle>

    <vehicle id="v.65" type="car" depart="85.00" departLane="2" arrival="104.00">
        <routeDistribution>
            <route replacedOnEdge="SC" reason="rerouter" replacedAtTime="85.00" probability="0" edges="SC CN"/>
            <route edges="SC CW"/>
        </routeDistribution>
    </vehicle>

    <vehicle id="v.69" type="car" depart="88.00" departLane="2" arrival="104.00">
        <routeDistribution>
            <route replacedOnEdge="SC" reason="rerouter" replacedAtTime="88.00" probability="0" edges="SC CN"/>
            <route edges="SC CE"/>
        </routeDistribution>
    </vehicle>

    <vehicle id="v.67" type="car" depart="89.00" departLane="0" arrival="106.00">
        <routeDistribution>
            <route replacedOnEdge="SC" reason="rerouter" replacedAtTime="89.00" probability="0" edges="SC CN"/>
            <route edges="SC CE"/>
        </routeDistribution>
    </vehicle>

    <vehicle id="v.72" type="car" depart="91.00" departLane="2" arrival="108.00">
        <routeDistribution>
            <route replacedOnEdge="SC" reason="rerouter" replacedAtTime="91.00" probability="0" edges="SC CN"/>
            <route edges="SC CW"/>
        </routeDistribution>
    </vehicle>

    <vehicle id="v.75" type="car" depart="89.00" departLane="1" arrival="108.00">
        <routeDistribution>
            <route replacedOnEdge="SC" reason="rerouter" replacedAtTime="89.00" probability="0" edges="SC CN"/>
            <route edges="SC CE"/>
        </routeDistribution>
    </vehicle>

    <vehicle id="v.71" type="car" depart="92.00" departLane="1" arrival="109.00">
        <routeDistribution>
            <route replacedOnEdge="SC" reason="rerouter" replacedAtTime="92.00" probability="0" edges="SC CN"/>
            <route edges="SC CN"/>
        </routeDistribution>
    </vehicle>

    <vehicle id="v.73" type="car" depart="94.00" departLane="0" arrival="111.00">
        <routeDistribution>
            <route replacedOnEdge="SC" reason="rerouter" replacedAtTime="94.00" probability="0" edges="SC CN"/>
            <route edges="SC CN"/>
        </routeDistribution>
    </vehicle>

    <vehicle id="v.70" type="car" depart="94.00" departLane="1" arrival="112.00">
        <routeDistribution>
            <route replacedOnEdge="SC" reason="rerouter" replacedAtTime="94.00" probability="0" edges="SC CN"/>
            <route edges="SC CE"/>
        </routeDistribution>
    </vehicle>

    <vehicle id="v.74" type="car" depart="93.00" departLane="2" arrival="112.00">
        <routeDistribution>
            <route replacedOnEdge="SC" reason="rerouter" replacedAtTime="93.00" probability="0" edges="SC CN"/>
            <route edges="SC CW"/>
        </routeDistribution>
    </vehicle>

    <vehicle id="v.76" type="car" depart="96.00" departLane="2" arrival="114.00">
        <routeDistribution>
            <route replacedOnEdge="SC" reason="rerouter" replacedAtTime="96.00" probability="0" edges="SC CN"/>
            <route edges="SC CE"/>
        </routeDistribution>
    </vehicle>

    <vehicle id="v.79" type="car" depart="96.00" departLane="0" arrival="117.00">
        <routeDistribution>
            <route replacedOnEdge="SC" reason="rerouter" replacedAtTime="96.00" probability="0" edges="SC CN"/>
            <route edges="SC CN"/>
        </routeDistribution>
    </vehicle>

    <vehicle id="v.77" type="car" depart="98.00" departLane="1" arrival="120.00">
        <routeDistribution>
            <route replacedOnEdge="SC" reason="rerouter" replacedAtTime="98.00" probability="0" edges="SC CN"/>
            <route edges="SC CW"/>
        </routeDistribution>
    </vehicle>

    <vehicle id="v.78" type="car" depart="100.00" departLane="2" arrival="120.00">
        <routeDistribution>
            <route replacedOnEdge="SC" reason="rerouter" replacedAtTime="100.00" probability="0" edges="SC CN"/>
            <route edges="SC CN"/>
        </routeDistribution>
    </vehicle>

    <vehicle id="v.81" type="car" depart="104.00" departLane="2" arrival="122.00">
        <routeDistribution>
            <route replacedOnEdge="SC" reason="rerouter" replacedAtTime="104.00" probability="0" edges="SC CN"/>
            <route edges="SC CE"/>
        </routeDistribution>
    </vehicle>

    <vehicle id="v.80" type="car" depart="106.00" departLane="0" arrival="123.00">
        <routeDistribution>
            <route replacedOnEdge="SC" reason="rerouter" replacedAtTime="106.00" probability="0" edges="SC CN"/>
            <route edges="SC CE"/>
        </routeDistribution>
    </vehicle>

    <vehicle id="v.83" type="car" depart="108.00" departLane="0" arrival="125.00">
        <routeDistribution>
            <route replacedOnEdge="SC" reason="rerouter" replacedAtTime="108.00" probability="0" edges="SC CN"/>
            <route edges="SC CE"/>
        </routeDistribution>
    </vehicle>

    <vehicle id="v.82" type="car" depart="101.00" departLane="0" arrival="126.00">
        <routeDistribution>
            <route replacedOnEdge="SC" reason="rerouter" replacedAtTime="101.00" probability="0" edges="SC CN"/>
            <route edges="SC CW"/>
        </routeDistribution>
    </vehicle>

    <vehicle id="v.86" type="car" depart="108.00" departLane="2" arrival="126.00">
        <routeDistribution>
            <route replacedOnEdge="SC" reason="rerouter" replacedAtTime="108.00" probability="0" edges="SC CN"/>
            <route edges="SC CE"/>
        </routeDistribution>
    </vehicle>

    <vehicle id="v.89" type="car" depart="111.00" departLane="0" arrival="128.00">
        <routeDistribution>
            <route replacedOnEdge="SC" reason="rerouter" replacedAtTime="111.00" probability="0" edges="SC CN"/>
            <route edges="SC CE"/>
        </routeDistribution>
    </vehicle>

    <vehicle id="v.84" type="car" depart="110.00" departLane="2" arrival="129.00">
        <routeDistribution>
            <route replacedOnEdge="SC" reason="rerouter" replacedAtTime="110.00" probability="0" edges="SC CN"/>
            <route edges="SC CW"/>
        </routeDistribution>
    </vehicle>

    <vehicle id="v.85" type="car" depart="112.00" departLane="2" arrival="131.00">
        <routeDistribution>
            <route replacedOnEdge="SC" reason="rerouter" replacedAtTime="112.00" probability="0" edges="SC CN"/>
            <route edges="SC CN"/>
        </routeDistribution>
    </vehicle>

    <vehicle id="v.88" type="car" depart="112.00" departLane="1" arrival="131.00">
        <routeDistribution>
            <route replacedOnEdge="SC" reason="rerouter" replacedAtTime="112.00" probability="0" edges="SC CN"/>
            <route edges="SC CW"/>
        </routeDistribution>
    </vehicle>

    <vehicle id="v.87" type="car" depart="116.00" departLane="2" arrival="133.00">
        <routeDistribution>
            <route replacedOnEdge="SC" reason="rerouter" replacedAtTime="116.00" probability="0" edges="SC CN"/>
            <route edges="SC CE"/>
        </routeDistribution>
    </vehicle>

    <vehicle id="v.92" type="car" depart="120.00" departLane="0" arrival="137.00">
        <routeDistribution>
            <route replacedOnEdge="SC" reason="rerouter" replacedAtTime="120.00" probability="0" edges="SC CN"/>
            <route edges="SC CN"/>
        </routeDistribution>
    </vehicle>

    <vehicle id="v.95" type="car" depart="114.00" departLane="1" arrival="138.00">
        <routeDistribution>
            <route replacedOnEdge="SC" reason="rerouter" replacedAtTime="114.00" probability="0" edges="SC CN"/>
            <route edges="SC CW"/>
        </routeDistribution>
    </vehicle>

    <vehicle id="v.91" type="car" depart="115.00" departLane="0" arrival="139.00">
        <routeDistribution>
            <route replacedOnEdge="SC" reason="rerouter" replacedAtTime="115.00" probability="0" edges="SC CN"/>
            <route edges="SC CW"/>
        </routeDistribution>
    </vehicle>

    <vehicle id="v.98" type="car" depart="122.00" departLane="0" arrival="139.00">
        <routeDistribution>
            <route replacedOnEdge="SC" reason="rerouter" replacedAtTime="122.00" probability="0" edges="SC CN"/>
            <route edges="SC CN"/>
        </routeDistribution>
    </vehicle>
