<?xml version="1.0" encoding="UTF-8"?>

<!-- generated on 2022-12-07 09:30:09 by Eclipse SUMO sumo Version v1_15_0+0850-dc004ca
This data file and the accompanying materials
are made available under the terms of the Eclipse Public License v2.0
which accompanies this distribution, and is available at
http://www.eclipse.org/legal/epl-v20.html
This file may also be made available under the following Secondary
Licenses when the conditions for such availability set forth in the Eclipse
Public License 2.0 are satisfied: GNU General Public License, version 2
or later which is available at
https://www.gnu.org/licenses/old-licenses/gpl-2.0-standalone.html
SPDX-License-Identifier: EPL-2.0 OR GPL-2.0-or-later
<configuration xmlns:xsi="http://www.w3.org/2001/XMLSchema-instance" xsi:noNamespaceSchemaLocation="http://sumo.dlr.de/xsd/sumoConfiguration.xsd">

    <input>
        <net-file value="net2.net.xml"/>
        <route-files value="input_routes.rou.xml"/>
        <additional-files value="input_additional.add.xml,input_additional2.add.xml"/>
    </input>

    <output>
        <write-license value="true"/>
        <tripinfo-output value="tripinfos.xml"/>
        <vehroute-output.skip-ptlines value="true"/>
    </output>

    <processing>
        <default.speeddev value="0"/>
    </processing>

    <report>
        <xml-validation value="never"/>
        <no-step-log value="true"/>
    </report>

    <mesoscopic>
        <mesosim value="true"/>
    </mesoscopic>

</configuration>
-->

<tripinfos xmlns:xsi="http://www.w3.org/2001/XMLSchema-instance" xsi:noNamespaceSchemaLocation="http://sumo.dlr.de/xsd/tripinfo_file.xsd">
    <tripinfo id="trainAC.0" depart="200.00" departLane="" departPos="0.00" departSpeed="13.89" departDelay="0.00" arrival="435.00" arrivalLane="" arrivalPos="500.00" arrivalSpeed="13.89" duration="235.00" routeLength="1700.00" waitingTime="0.00" waitingCount="0" stopTime="112.02" timeLoss="112.02" rerouteNo="0" devices="tripinfo_trainAC.0 person_trainAC.0" vType="train" speedFactor="1.00" vaporized=""/>
    <personinfo id="p0" depart="0.00" type="DEFAULT_PEDTYPE" speedFactor="1.00">
        <walk depart="0.00" departPos="0.00" arrival="59.00" arrivalPos="81.39" duration="59.00" routeLength="81.39" timeLoss="0.40" maxSpeed="1.39"/>
        <access stop="stopA_E" depart="59.00" arrival="133.00" duration="74.00" routeLength="103.29"/>
        <ride waitingTime="144.80" vehicle="trainAC.0" depart="277.80" arrival="364.00" arrivalPos="300.00" duration="86.20" routeLength="1200.00" timeLoss="0.00"/>
        <access stop="stopC_E" depart="364.00" arrival="459.00" duration="95.00" routeLength="132.38"/>
        <walk depart="459.00" departPos="109.86" arrival="467.00" arrivalPos="100.00" duration="8.00" routeLength="9.86" timeLoss="0.90" maxSpeed="1.39"/>
    </personinfo>
    <tripinfo id="trainAC.1" depart="500.00" departLane="" departPos="0.00" departSpeed="13.89" departDelay="0.00" arrival="735.00" arrivalLane="" arrivalPos="500.00" arrivalSpeed="13.89" duration="235.00" routeLength="1700.00" waitingTime="0.00" waitingCount="0" stopTime="112.02" timeLoss="112.02" rerouteNo="0" devices="tripinfo_trainAC.1" vType="train" speedFactor="1.00" vaporized=""/>
    <tripinfo id="trainAC.2" depart="800.00" departLane="" departPos="0.00" departSpeed="13.89" departDelay="0.00" arrival="1035.00" arrivalLane="" arrivalPos="500.00" arrivalSpeed="13.89" duration="235.00" routeLength="1700.00" waitingTime="0.00" waitingCount="0" stopTime="112.02" timeLoss="112.02" rerouteNo="0" devices="tripinfo_trainAC.2" vType="train" speedFactor="1.00" vaporized=""/>
</tripinfos>
