<?xml version="1.0" encoding="UTF-8"?>

<!-- generated on Thu May  8 13:31:47 2014 by SUMO sumo Version dev-SVN-r16321
<?xml version="1.0" encoding="UTF-8"?>

<configuration xmlns:xsi="http://www.w3.org/2001/XMLSchema-instance" xsi:noNamespaceSchemaLocation="http://sumo.dlr.de/xsd/sumoConfiguration.xsd">

    <input>
        <net-file value="net.net.xml"/>
        <additional-files value="input_additional.add.xml,input_additional2.add.xml"/>
    </input>

    <output>
        <netstate-dump value="rawdump.xml"/>
    </output>

    <processing>
        <pedestrian.model value="striping"/>
        <pedestrian.striping.dawdling value="0"/>
    </processing>

    <report>
        <xml-validation value="never"/>
        <no-step-log value="true"/>
    </report>

</configuration>
-->

<netstate xmlns:xsi="http://www.w3.org/2001/XMLSchema-instance" xsi:noNamespaceSchemaLocation="http://sumo.dlr.de/xsd/netstate_file.xsd">
    <timestep time="0.00">
        <edge id="SC">
            <person id="p0" pos="65.68" angle="-180.00" stage="walking"/>
        </edge>
    </timestep>
    <timestep time="1.00">
        <edge id="SC">
            <person id="p0" pos="67.07" angle="-180.00" stage="walking"/>
        </edge>
    </timestep>
    <timestep time="2.00">
        <edge id="SC">
            <person id="p0" pos="68.46" angle="-180.00" stage="walking"/>
        </edge>
    </timestep>
    <timestep time="3.00">
        <edge id="SC">
            <person id="p0" pos="69.85" angle="-180.00" stage="walking"/>
        </edge>
    </timestep>
    <timestep time="4.00">
        <edge id="SC">
            <person id="p0" pos="71.24" angle="-180.00" stage="walking"/>
        </edge>
    </timestep>
    <timestep time="5.00">
        <edge id="SC">
            <person id="p0" pos="72.62" angle="-180.00" stage="walking"/>
        </edge>
    </timestep>
    <timestep time="6.00">
        <edge id="SC">
            <person id="p0" pos="74.01" angle="-180.00" stage="walking"/>
        </edge>
    </timestep>
    <timestep time="7.00">
        <edge id="SC">
            <person id="p0" pos="75.40" angle="-180.00" stage="walking"/>
        </edge>
    </timestep>
    <timestep time="8.00">
        <edge id="SC">
            <person id="p0" pos="76.79" angle="-180.00" stage="walking"/>
        </edge>
    </timestep>
    <timestep time="9.00">
        <edge id="SC">
            <person id="p0" pos="78.18" angle="-180.00" stage="walking"/>
        </edge>
    </timestep>
    <timestep time="10.00">
        <edge id="SC">
            <person id="p0" pos="79.57" angle="-180.00" stage="walking"/>
        </edge>
    </timestep>
    <timestep time="11.00">
        <edge id="SC">
            <person id="p0" pos="80.96" angle="-180.00" stage="walking"/>
        </edge>
    </timestep>
    <timestep time="12.00">
        <edge id="SC">
            <person id="p0" pos="82.35" angle="-180.00" stage="walking"/>
        </edge>
    </timestep>
    <timestep time="13.00">
        <edge id="SC">
            <person id="p0" pos="83.74" angle="-180.00" stage="walking"/>
        </edge>
    </timestep>
    <timestep time="14.00">
        <edge id="SC">
            <person id="p0" pos="85.12" angle="-180.00" stage="walking"/>
        </edge>
    </timestep>
    <timestep time="15.00">
        <edge id=":C_w2">
            <person id="p0" pos="0.83" angle="-149.75" stage="walking"/>
        </edge>
    </timestep>
    <timestep time="16.00">
        <edge id=":C_w2">
            <person id="p0" pos="2.22" angle="-149.75" stage="walking"/>
        </edge>
    </timestep>
    <timestep time="17.00">
        <edge id=":C_c2">
            <person id="p0" pos="18.08" angle="-90.00" stage="walking"/>
        </edge>
    </timestep>
    <timestep time="18.00">
        <edge id=":C_c2">
            <person id="p0" pos="16.69" angle="-90.00" stage="walking"/>
        </edge>
    </timestep>
    <timestep time="19.00">
        <edge id=":C_c2">
            <person id="p0" pos="15.30" angle="-90.00" stage="walking"/>
        </edge>
    </timestep>
    <timestep time="20.00">
        <edge id=":C_c2">
            <person id="p0" pos="13.91" angle="-90.00" stage="walking"/>
        </edge>
    </timestep>
    <timestep time="21.00">
        <edge id=":C_c2">
            <person id="p0" pos="12.52" angle="-90.00" stage="walking"/>
        </edge>
    </timestep>
    <timestep time="22.00">
        <edge id=":C_c2">
            <person id="p0" pos="11.13" angle="-90.00" stage="walking"/>
        </edge>
    </timestep>
    <timestep time="23.00">
        <edge id=":C_c2">
            <person id="p0" pos="9.74" angle="-90.00" stage="walking"/>
        </edge>
    </timestep>
    <timestep time="24.00">
        <edge id=":C_c2">
            <person id="p0" pos="8.35" angle="-90.00" stage="walking"/>
        </edge>
    </timestep>
    <timestep time="25.00">
        <edge id=":C_c2">
            <person id="p0" pos="6.96" angle="-90.00" stage="walking"/>
        </edge>
    </timestep>
    <timestep time="26.00">
        <edge id=":C_c2">
            <person id="p0" pos="5.58" angle="-90.00" stage="walking"/>
        </edge>
    </timestep>
    <timestep time="27.00">
        <edge id=":C_c2">
            <person id="p0" pos="4.19" angle="-90.00" stage="walking"/>
        </edge>
    </timestep>
    <timestep time="28.00">
        <edge id=":C_c2">
            <person id="p0" pos="2.80" angle="-90.00" stage="walking"/>
        </edge>
    </timestep>
    <timestep time="29.00">
        <edge id=":C_c2">
            <person id="p0" pos="1.41" angle="-90.00" stage="walking"/>
        </edge>
    </timestep>
    <timestep time="30.00">
        <edge id=":C_c2">
            <person id="p0" pos="0.02" angle="-90.00" stage="walking"/>
        </edge>
    </timestep>
    <timestep time="31.00">
        <edge id=":C_w3">
            <person id="p0" pos="3.64" angle="-118.23" stage="walking"/>
        </edge>
    </timestep>
    <timestep time="32.00">
        <edge id=":C_w3">
            <person id="p0" pos="2.25" angle="-118.23" stage="walking"/>
        </edge>
    </timestep>
    <timestep time="33.00">
        <edge id=":C_w3">
            <person id="p0" pos="0.86" angle="-90.00" stage="walking"/>
        </edge>
    </timestep>
    <timestep time="34.00">
        <edge id="WC">
            <person id="p0" pos="85.52" angle="-90.00" stage="walking"/>
        </edge>
    </timestep>
    <timestep time="35.00">
        <edge id="WC">
            <person id="p0" pos="84.13" angle="-90.00" stage="walking"/>
        </edge>
    </timestep>
    <timestep time="36.00">
        <edge id="WC">
            <person id="p0" pos="82.74" angle="-90.00" stage="walking"/>
        </edge>
    </timestep>
    <timestep time="37.00">
        <edge id="WC">
            <person id="p0" pos="81.35" angle="-90.00" stage="walking"/>
        </edge>
    </timestep>
    <timestep time="38.00">
        <edge id="WC">
            <person id="p0" pos="79.97" angle="-90.00" stage="walking"/>
        </edge>
    </timestep>
    <timestep time="39.00">
        <edge id="WC">
            <person id="p0" pos="78.58" angle="-90.00" stage="walking"/>
        </edge>
    </timestep>
    <timestep time="40.00">
        <edge id="WC">
            <person id="p0" pos="77.19" angle="-90.00" stage="walking"/>
        </edge>
    </timestep>
    <timestep time="41.00">
        <edge id="WC">
            <person id="p0" pos="75.80" angle="-90.00" stage="walking"/>
        </edge>
    </timestep>
    <timestep time="42.00">
        <edge id="WC">
            <person id="p0" pos="74.41" angle="-90.00" stage="walking"/>
        </edge>
    </timestep>
    <timestep time="43.00">
        <edge id="WC">
            <person id="p0" pos="73.02" angle="-90.00" stage="walking"/>
        </edge>
    </timestep>
    <timestep time="44.00">
        <edge id="WC">
            <person id="p0" pos="71.63" angle="-90.00" stage="walking"/>
        </edge>
    </timestep>
    <timestep time="45.00">
        <edge id="WC">
            <person id="p0" pos="70.24" angle="-90.00" stage="walking"/>
        </edge>
    </timestep>
    <timestep time="46.00">
        <edge id="WC">
            <person id="p0" pos="68.85" angle="-90.00" stage="walking"/>
        </edge>
    </timestep>
    <timestep time="47.00">
        <edge id="WC">
            <person id="p0" pos="67.47" angle="-90.00" stage="walking"/>
        </edge>
    </timestep>
    <timestep time="48.00">
        <edge id="WC">
            <person id="p0" pos="66.08" angle="-90.00" stage="walking"/>
        </edge>
    </timestep>
    <timestep time="49.00"/>
</netstate>
