<?xml version="1.0" encoding="UTF-8"?>

<!-- generated on Mon Nov 19 11:03:20 2018 by Eclipse SUMO Version v1_0_1+0645-93703db
This data file and the accompanying materials
are made available under the terms of the Eclipse Public License v2.0
which accompanies this distribution, and is available at
http://www.eclipse.org/legal/epl-v20.html
SPDX-License-Identifier: EPL-2.0
<configuration xmlns:xsi="http://www.w3.org/2001/XMLSchema-instance" xsi:noNamespaceSchemaLocation="http://sumo.dlr.de/xsd/sumoConfiguration.xsd">

    <input>
        <net-file value="net.net.xml"/>
        <route-files value="input_routes.rou.xml"/>
    </input>

    <output>
        <write-license value="true"/>
        <tripinfo-output value="tripinfos.xml"/>
    </output>

    <time>
        <step-length value="0.1"/>
    </time>

    <processing>
        <lateral-resolution value="0.25"/>
        <default.speeddev value="0"/>
    </processing>

    <report>
        <xml-validation value="never"/>
        <no-step-log value="true"/>
    </report>

    <gui_only>
        <tracker-interval value="0.1"/>
    </gui_only>

</configuration>
-->

<tripinfos xmlns:xsi="http://www.w3.org/2001/XMLSchema-instance" xsi:noNamespaceSchemaLocation="http://sumo.dlr.de/xsd/tripinfo_file.xsd">
    <tripinfo id="passenger" depart="0.00" departLane="NS1_1" departPos="125.40" departPosLat="0.00" departSpeed="0.00" departDelay="0.00" arrival="60.70" arrivalLane="NS3_1" arrivalPos="142.77" arrivalPosLat="0.22" arrivalSpeed="13.82" duration="60.70" routeLength="179.97" waitingTime="42.00" waitingCount="1" stopTime="0.00" timeLoss="47.68" rerouteNo="0" devices="tripinfo_passenger" vType="passenger" speedFactor="1.00" vaporized=""/>
    <tripinfo id="bike" depart="5.00" departLane="NS1_0" departPos="125.40" departPosLat="0.00" departSpeed="0.00" departDelay="0.00" arrival="81.10" arrivalLane="NS3_0" arrivalPos="142.77" arrivalPosLat="0.00" arrivalSpeed="6.00" duration="76.10" routeLength="179.97" waitingTime="32.00" waitingCount="2" stopTime="0.00" timeLoss="46.06" rerouteNo="0" devices="tripinfo_bike" vType="bicycle" speedFactor="1.00" vaporized=""/>
</tripinfos>
