<?xml version="1.0" encoding="UTF-8"?>

<!-- generated on 2022-02-09 17:48:56 by Eclipse SUMO sumo Version v1_12_0+0407-89d3a2c
This data file and the accompanying materials
are made available under the terms of the Eclipse Public License v2.0
which accompanies this distribution, and is available at
http://www.eclipse.org/legal/epl-v20.html
This file may also be made available under the following Secondary
Licenses when the conditions for such availability set forth in the Eclipse
Public License 2.0 are satisfied: GNU General Public License, version 2
or later which is available at
https://www.gnu.org/licenses/old-licenses/gpl-2.0-standalone.html
SPDX-License-Identifier: EPL-2.0 OR GPL-2.0-or-later
<configuration xmlns:xsi="http://www.w3.org/2001/XMLSchema-instance" xsi:noNamespaceSchemaLocation="http://sumo.dlr.de/xsd/sumoConfiguration.xsd">

    <input>
        <net-file value="net.net.xml"/>
        <route-files value="input_routes.rou.xml"/>
        <additional-files value="input_additional.add.xml"/>
    </input>

    <output>
        <write-license value="true"/>
    </output>

    <time>
        <begin value="0"/>
        <end value="1000"/>
    </time>

    <processing>
        <default.speeddev value="0"/>
    </processing>

    <report>
        <xml-validation value="never"/>
        <xml-validation.routes value="never"/>
        <duration-log.disable value="true"/>
        <no-step-log value="true"/>
    </report>

</configuration>
-->

<meandata xmlns:xsi="http://www.w3.org/2001/XMLSchema-instance" xsi:noNamespaceSchemaLocation="http://sumo.dlr.de/xsd/meandata_file.xsd">
    <interval begin="0.00" end="900.00" id="dump_900">
        <edge id="1fi">
            <lane id="1fi_0" sampledSeconds="5076.86" traveltime="25.19" overlapTraveltime="25.67" density="22.70" laneDensity="22.70" occupancy="11.18" waitingTime="25.00" timeLoss="589.67" speed="9.88" speedRelative="0.89" departed="80" arrived="13" entered="126" left="177" laneChangedFrom="0" laneChangedTo="0"/>
        </edge>
        <edge id="1o">
            <lane id="1o_0" sampledSeconds="6238.75" traveltime="47.06" overlapTraveltime="47.56" density="14.19" laneDensity="14.19" occupancy="7.02" waitingTime="0.00" timeLoss="409.68" speed="10.38" speedRelative="0.93" departed="0" arrived="0" entered="134" left="126" laneChangedFrom="0" laneChangedTo="0"/>
        </edge>
        <edge id="1si">
            <lane id="1si_0" sampledSeconds="2061.66" traveltime="61.47" overlapTraveltime="62.13" density="9.66" laneDensity="9.66" occupancy="4.79" waitingTime="1197.00" timeLoss="1480.66" speed="3.90" speedRelative="0.28" departed="0" arrived="0" entered="35" left="33" laneChangedFrom="0" laneChangedTo="0"/>
            <lane id="1si_1" sampledSeconds="1294.49" traveltime="19.17" overlapTraveltime="19.62" density="6.07" laneDensity="6.07" occupancy="2.96" waitingTime="64.00" timeLoss="138.54" speed="12.34" speedRelative="0.89" departed="0" arrived="0" entered="66" left="65" laneChangedFrom="0" laneChangedTo="0"/>
            <lane id="1si_2" sampledSeconds="11931.30" traveltime="187.40" overlapTraveltime="192.04" density="55.90" laneDensity="55.90" occupancy="27.81" waitingTime="7586.00" timeLoss="10845.46" speed="1.26" speedRelative="0.09" departed="0" arrived="0" entered="76" left="50" laneChangedFrom="0" laneChangedTo="0"/>
        </edge>
        <edge id="2fi">
            <lane id="2fi_0" sampledSeconds="5582.05" traveltime="24.63" overlapTraveltime="25.10" density="24.96" laneDensity="24.96" occupancy="12.29" waitingTime="0.00" timeLoss="531.72" speed="10.10" speedRelative="0.91" departed="79" arrived="56" entered="149" left="166" laneChangedFrom="0" laneChangedTo="0"/>
        </edge>
        <edge id="2o">
            <lane id="2o_0" sampledSeconds="7392.44" traveltime="47.04" overlapTraveltime="47.54" density="16.81" laneDensity="16.81" occupancy="8.32" waitingTime="0.00" timeLoss="482.48" speed="10.38" speedRelative="0.93" departed="0" arrived="0" entered="159" left="150" laneChangedFrom="0" laneChangedTo="0"/>
        </edge>
        <edge id="2si">
            <lane id="2si_0" sampledSeconds="3638.15" traveltime="58.07" overlapTraveltime="58.76" density="17.05" laneDensity="17.05" occupancy="8.45" waitingTime="2048.00" timeLoss="2554.57" speed="4.12" speedRelative="0.30" departed="0" arrived="0" entered="64" left="59" laneChangedFrom="0" laneChangedTo="0"/>
            <lane id="2si_1" sampledSeconds="2912.79" traveltime="37.64" overlapTraveltime="38.29" density="13.65" laneDensity="13.65" occupancy="6.73" waitingTime="1190.00" timeLoss="1581.13" speed="6.32" speedRelative="0.46" departed="0" arrived="0" entered="78" left="74" laneChangedFrom="0" laneChangedTo="0"/>
            <lane id="2si_2" sampledSeconds="1268.66" traveltime="45.67" overlapTraveltime="52.86" density="5.94" laneDensity="5.94" occupancy="2.90" waitingTime="552.00" timeLoss="849.00" speed="4.58" speedRelative="0.33" departed="0" arrived="0" entered="24" left="24" laneChangedFrom="0" laneChangedTo="0"/>
        </edge>
        <edge id="3fi">
            <lane id="3fi_0" sampledSeconds="6274.93" traveltime="25.25" overlapTraveltime="25.72" density="28.06" laneDensity="28.06" occupancy="13.85" waitingTime="0.00" timeLoss="732.84" speed="9.85" speedRelative="0.89" departed="150" arrived="81" entered="102" left="162" laneChangedFrom="0" laneChangedTo="0"/>
        </edge>
        <edge id="3o">
            <lane id="3o_0" sampledSeconds="5204.11" traveltime="47.08" overlapTraveltime="47.61" density="11.83" laneDensity="11.83" occupancy="5.85" waitingTime="0.00" timeLoss="346.98" speed="10.37" speedRelative="0.93" departed="0" arrived="0" entered="115" left="102" laneChangedFrom="0" laneChangedTo="0"/>
        </edge>
        <edge id="3si">
            <lane id="3si_0" sampledSeconds="3235.37" traveltime="45.28" overlapTraveltime="45.97" density="15.16" laneDensity="15.16" occupancy="7.49" waitingTime="1607.00" timeLoss="2003.79" speed="5.27" speedRelative="0.38" departed="0" arrived="0" entered="71" left="65" laneChangedFrom="0" laneChangedTo="0"/>
            <lane id="3si_1" sampledSeconds="3112.03" traveltime="43.56" overlapTraveltime="44.22" density="14.58" laneDensity="14.58" occupancy="7.21" waitingTime="1513.00" timeLoss="1880.44" speed="5.48" speedRelative="0.39" departed="0" arrived="0" entered="71" left="65" laneChangedFrom="0" laneChangedTo="0"/>
            <lane id="3si_2" sampledSeconds="1002.79" traveltime="45.06" overlapTraveltime="50.56" density="4.70" laneDensity="4.70" occupancy="2.30" waitingTime="412.00" timeLoss="656.20" speed="4.79" speedRelative="0.34" departed="0" arrived="0" entered="20" left="17" laneChangedFrom="0" laneChangedTo="0"/>
        </edge>
        <edge id="4fi">
            <lane id="4fi_0" sampledSeconds="3870.89" traveltime="23.83" overlapTraveltime="24.29" density="17.31" laneDensity="17.31" occupancy="8.49" waitingTime="0.00" timeLoss="257.62" speed="10.44" speedRelative="0.94" departed="0" arrived="0" entered="160" left="158" laneChangedFrom="0" laneChangedTo="0"/>
        </edge>
        <edge id="4o">
            <lane id="4o_0" sampledSeconds="7927.13" traveltime="47.03" overlapTraveltime="47.51" density="18.03" laneDensity="18.03" occupancy="8.92" waitingTime="0.00" timeLoss="513.45" speed="10.39" speedRelative="0.94" departed="0" arrived="0" entered="174" left="160" laneChangedFrom="0" laneChangedTo="0"/>
        </edge>
        <edge id="4si">
            <lane id="4si_0" sampledSeconds="3107.16" traveltime="61.49" overlapTraveltime="62.22" density="14.56" laneDensity="14.56" occupancy="7.22" waitingTime="1806.00" timeLoss="2233.32" speed="3.89" speedRelative="0.28" departed="0" arrived="0" entered="51" left="43" laneChangedFrom="0" laneChangedTo="0"/>
            <lane id="4si_1" sampledSeconds="1245.05" traveltime="20.00" overlapTraveltime="20.47" density="5.83" laneDensity="5.83" occupancy="2.85" waitingTime="108.00" timeLoss="180.48" speed="11.83" speedRelative="0.85" departed="0" arrived="0" entered="63" left="58" laneChangedFrom="0" laneChangedTo="0"/>
            <lane id="4si_2" sampledSeconds="4935.03" traveltime="115.82" overlapTraveltime="122.23" density="23.12" laneDensity="23.12" occupancy="11.47" waitingTime="3343.00" timeLoss="4229.51" speed="1.98" speedRelative="0.14" departed="0" arrived="0" entered="44" left="29" laneChangedFrom="0" laneChangedTo="0"/>
        </edge>
    </interval>
    <interval begin="900.00" end="1000.00" id="dump_900">
        <edge id="1fi">
            <lane id="1fi_0" sampledSeconds="1406.66" traveltime="46.30" overlapTraveltime="48.24" density="56.61" laneDensity="56.61" occupancy="27.88" waitingTime="283.00" timeLoss="744.00" speed="5.26" speedRelative="0.47" departed="10" arrived="4" entered="21" left="22" laneChangedFrom="0" laneChangedTo="0"/>
        </edge>
        <edge id="1o">
            <lane id="1o_0" sampledSeconds="1035.87" traveltime="47.10" overlapTraveltime="47.59" density="21.20" laneDensity="21.20" occupancy="10.48" waitingTime="0.00" timeLoss="68.78" speed="10.37" speedRelative="0.93" departed="0" arrived="0" entered="24" left="21" laneChangedFrom="0" laneChangedTo="0"/>
        </edge>
        <edge id="1si">
            <lane id="1si_0" sampledSeconds="498.62" traveltime="50.19" overlapTraveltime="50.78" density="21.03" laneDensity="21.03" occupancy="10.41" waitingTime="237.00" timeLoss="326.82" speed="4.77" speedRelative="0.34" departed="0" arrived="0" entered="8" left="10" laneChangedFrom="0" laneChangedTo="0"/>
            <lane id="1si_1" sampledSeconds="160.08" traveltime="25.93" overlapTraveltime="26.57" density="6.75" laneDensity="6.75" occupancy="3.30" waitingTime="45.00" timeLoss="54.36" speed="9.11" speedRelative="0.66" departed="0" arrived="0" entered="6" left="7" laneChangedFrom="0" laneChangedTo="0"/>
            <lane id="1si_2" sampledSeconds="2873.90" traveltime="404.64" overlapTraveltime="411.30" density="121.18" laneDensity="121.18" occupancy="60.16" waitingTime="1578.00" timeLoss="2751.78" speed="0.59" speedRelative="0.04" departed="0" arrived="0" entered="7" left="5" laneChangedFrom="0" laneChangedTo="0"/>
        </edge>
        <edge id="2fi">
            <lane id="2fi_0" sampledSeconds="846.48" traveltime="24.49" overlapTraveltime="24.96" density="34.06" laneDensity="34.06" occupancy="16.77" waitingTime="0.00" timeLoss="76.37" speed="10.15" speedRelative="0.91" departed="11" arrived="9" entered="24" left="24" laneChangedFrom="0" laneChangedTo="0"/>
        </edge>
        <edge id="2o">
            <lane id="2o_0" sampledSeconds="1050.02" traveltime="47.01" overlapTraveltime="47.50" density="21.49" laneDensity="21.49" occupancy="10.62" waitingTime="0.00" timeLoss="67.76" speed="10.39" speedRelative="0.94" departed="0" arrived="0" entered="24" left="23" laneChangedFrom="0" laneChangedTo="0"/>
        </edge>
        <edge id="2si">
            <lane id="2si_0" sampledSeconds="440.90" traveltime="48.07" overlapTraveltime="48.90" density="18.59" laneDensity="18.59" occupancy="9.21" waitingTime="218.00" timeLoss="283.34" speed="4.95" speedRelative="0.36" departed="0" arrived="0" entered="9" left="6" laneChangedFrom="0" laneChangedTo="0"/>
            <lane id="2si_1" sampledSeconds="431.42" traveltime="43.71" overlapTraveltime="44.34" density="18.19" laneDensity="18.19" occupancy="8.99" waitingTime="210.00" timeLoss="261.17" speed="5.46" speedRelative="0.39" departed="0" arrived="0" entered="10" left="9" laneChangedFrom="0" laneChangedTo="0"/>
            <lane id="2si_2" sampledSeconds="259.62" traveltime="46.36" overlapTraveltime="51.92" density="10.95" laneDensity="10.95" occupancy="5.36" waitingTime="109.00" timeLoss="172.17" speed="4.66" speedRelative="0.34" departed="0" arrived="0" entered="5" left="5" laneChangedFrom="0" laneChangedTo="0"/>
        </edge>
        <edge id="3fi">
            <lane id="3fi_0" sampledSeconds="969.16" traveltime="24.95" overlapTraveltime="25.42" density="39.00" laneDensity="39.00" occupancy="19.20" waitingTime="0.00" timeLoss="102.75" speed="9.97" speedRelative="0.90" departed="16" arrived="16" entered="23" left="23" laneChangedFrom="0" laneChangedTo="0"/>
        </edge>
        <edge id="3o">
            <lane id="3o_0" sampledSeconds="1135.36" traveltime="47.03" overlapTraveltime="47.56" density="23.23" laneDensity="23.23" occupancy="11.49" waitingTime="0.00" timeLoss="74.66" speed="10.38" speedRelative="0.93" departed="0" arrived="0" entered="24" left="23" laneChangedFrom="0" laneChangedTo="0"/>
        </edge>
        <edge id="3si">
            <lane id="3si_0" sampledSeconds="412.74" traveltime="45.70" overlapTraveltime="46.36" density="17.40" laneDensity="17.40" occupancy="8.57" waitingTime="196.00" timeLoss="256.74" speed="5.22" speedRelative="0.38" departed="0" arrived="0" entered="9" left="12" laneChangedFrom="0" laneChangedTo="0"/>
            <lane id="3si_1" sampledSeconds="363.49" traveltime="42.21" overlapTraveltime="42.86" density="15.33" laneDensity="15.33" occupancy="7.54" waitingTime="157.00" timeLoss="214.83" speed="5.65" speedRelative="0.41" departed="0" arrived="0" entered="9" left="12" laneChangedFrom="0" laneChangedTo="0"/>
            <lane id="3si_2" sampledSeconds="210.18" traveltime="43.92" overlapTraveltime="52.34" density="8.86" laneDensity="8.86" occupancy="4.32" waitingTime="89.00" timeLoss="139.99" speed="4.63" speedRelative="0.33" departed="0" arrived="0" entered="4" left="5" laneChangedFrom="0" laneChangedTo="0"/>
        </edge>
        <edge id="4fi">
            <lane id="4fi_0" sampledSeconds="554.28" traveltime="23.79" overlapTraveltime="24.26" density="22.31" laneDensity="22.31" occupancy="10.93" waitingTime="0.00" timeLoss="35.99" speed="10.45" speedRelative="0.94" departed="0" arrived="0" entered="24" left="23" laneChangedFrom="0" laneChangedTo="0"/>
        </edge>
        <edge id="4o">
            <lane id="4o_0" sampledSeconds="1106.41" traveltime="47.10" overlapTraveltime="47.58" density="22.64" laneDensity="22.64" occupancy="11.20" waitingTime="0.00" timeLoss="73.19" speed="10.38" speedRelative="0.93" departed="0" arrived="0" entered="22" left="25" laneChangedFrom="0" laneChangedTo="0"/>
        </edge>
        <edge id="4si">
            <lane id="4si_0" sampledSeconds="556.65" traveltime="64.86" overlapTraveltime="65.32" density="23.47" laneDensity="23.47" occupancy="11.61" waitingTime="319.00" timeLoss="407.02" speed="3.71" speedRelative="0.27" departed="0" arrived="0" entered="8" left="12" laneChangedFrom="0" laneChangedTo="0"/>
            <lane id="4si_1" sampledSeconds="181.75" traveltime="17.97" overlapTraveltime="18.40" density="7.66" laneDensity="7.66" occupancy="3.75" waitingTime="0.00" timeLoss="8.75" speed="13.16" speedRelative="0.95" departed="0" arrived="0" entered="9" left="10" laneChangedFrom="0" laneChangedTo="0"/>
            <lane id="4si_2" sampledSeconds="1362.05" traveltime="230.82" overlapTraveltime="237.24" density="57.43" laneDensity="57.43" occupancy="28.59" waitingTime="994.00" timeLoss="1261.59" speed="1.02" speedRelative="0.07" departed="0" arrived="0" entered="6" left="7" laneChangedFrom="0" laneChangedTo="0"/>
        </edge>
    </interval>
</meandata>
