<?xml version="1.0" encoding="UTF-8"?>

<!-- generated on 2026-04-09T16:35:13.094916+01:00 by Eclipse SUMO sumo v1_26_0+1034-8d7c6592743
This data file and the accompanying materials
are made available under the terms of the Eclipse Public License v2.0
which accompanies this distribution, and is available at
http://www.eclipse.org/legal/epl-v20.html
This file may also be made available under the following Secondary
Licenses when the conditions for such availability set forth in the Eclipse
Public License 2.0 are satisfied: GNU General Public License, version 2
or later which is available at
https://www.gnu.org/licenses/old-licenses/gpl-2.0-standalone.html
SPDX-License-Identifier: EPL-2.0 OR GPL-2.0-or-later
<sumoConfiguration xmlns:xsi="http://www.w3.org/2001/XMLSchema-instance" xsi:noNamespaceSchemaLocation="http://sumo.dlr.de/xsd/sumoConfiguration.xsd">

    <input>
        <net-file value="net.net.xml"/>
        <route-files value="input_routes.rou.xml"/>
        <additional-files value="input_additional.add.xml"/>
    </input>

    <output>
        <write-license value="true"/>
    </output>

    <time>
        <begin value="0"/>
        <end value="1000"/>
    </time>

    <processing>
        <default.speeddev value="0"/>
    </processing>

    <report>
        <xml-validation value="never"/>
        <duration-log.disable value="true"/>
        <no-step-log value="true"/>
    </report>

    <mesoscopic>
        <mesosim value="true"/>
    </mesoscopic>

</sumoConfiguration>
-->

<meandata xmlns:xsi="http://www.w3.org/2001/XMLSchema-instance" xsi:noNamespaceSchemaLocation="http://sumo.dlr.de/xsd/meandata_file.xsd">
    <interval begin="0.00" end="300.00" id="dump_300">
        <edge id="1fi" sampledSeconds="670.39" traveltime="22.37" overlapTraveltime="22.82" density="8.99" overlapDensity="8.99" laneDensity="8.99" occupancy="4.50" waitingTime="0.00" timeLoss="0.02" speed="11.11" speedRelative="1.00" departed="20" arrived="0" entered="12" left="28" laneChangedFrom="0" laneChangedTo="0" flow="359.65"/>
        <edge id="1o" sampledSeconds="617.67" traveltime="43.99" overlapTraveltime="44.44" density="4.21" overlapDensity="4.21" laneDensity="4.21" occupancy="2.11" waitingTime="0.00" timeLoss="0.03" speed="11.11" speedRelative="1.00" departed="0" arrived="0" entered="16" left="12" laneChangedFrom="0" laneChangedTo="0" flow="168.51"/>
        <edge id="1si" sampledSeconds="442.63" traveltime="17.07" overlapTraveltime="17.43" density="6.22" overlapDensity="6.22" laneDensity="2.07" occupancy="1.04" waitingTime="0.00" timeLoss="0.01" speed="13.89" speedRelative="1.00" departed="0" arrived="0" entered="28" left="24" laneChangedFrom="0" laneChangedTo="0" flow="311.09"/>
        <edge id="2fi" sampledSeconds="772.62" traveltime="22.63" overlapTraveltime="23.08" density="10.36" overlapDensity="10.36" laneDensity="10.36" occupancy="5.18" waitingTime="0.00" timeLoss="8.88" speed="10.98" speedRelative="0.99" departed="20" arrived="1" entered="18" left="29" laneChangedFrom="0" laneChangedTo="0" flow="409.75"/>
        <edge id="2o" sampledSeconds="1110.99" traveltime="43.99" overlapTraveltime="44.44" density="7.58" overlapDensity="7.58" laneDensity="7.58" occupancy="3.79" waitingTime="0.00" timeLoss="0.05" speed="11.11" speedRelative="1.00" departed="0" arrived="0" entered="32" left="18" laneChangedFrom="0" laneChangedTo="0" flow="303.10"/>
        <edge id="2si" sampledSeconds="449.20" traveltime="17.07" overlapTraveltime="17.43" density="6.31" overlapDensity="6.31" laneDensity="2.10" occupancy="1.05" waitingTime="0.00" timeLoss="0.01" speed="13.89" speedRelative="1.00" departed="0" arrived="0" entered="29" left="24" laneChangedFrom="0" laneChangedTo="0" flow="315.71"/>
        <edge id="3fi" sampledSeconds="936.67" traveltime="23.26" overlapTraveltime="23.73" density="12.56" overlapDensity="12.56" laneDensity="12.56" occupancy="6.28" waitingTime="0.00" timeLoss="36.08" speed="10.68" speedRelative="0.96" departed="40" arrived="1" entered="3" left="36" laneChangedFrom="0" laneChangedTo="0" flow="483.17"/>
        <edge id="3o" sampledSeconds="230.76" traveltime="43.98" overlapTraveltime="44.44" density="1.57" overlapDensity="1.57" laneDensity="1.57" occupancy="0.79" waitingTime="0.00" timeLoss="0.01" speed="11.11" speedRelative="1.00" departed="0" arrived="0" entered="7" left="3" laneChangedFrom="0" laneChangedTo="0" flow="62.96"/>
        <edge id="3si" sampledSeconds="587.52" traveltime="17.07" overlapTraveltime="17.43" density="8.26" overlapDensity="8.26" laneDensity="2.75" occupancy="1.38" waitingTime="0.00" timeLoss="0.02" speed="13.89" speedRelative="1.00" departed="0" arrived="0" entered="36" left="32" laneChangedFrom="0" laneChangedTo="0" flow="412.92"/>
        <edge id="4fi" sampledSeconds="527.00" traveltime="22.37" overlapTraveltime="22.82" density="7.07" overlapDensity="7.07" laneDensity="7.07" occupancy="3.53" waitingTime="0.00" timeLoss="0.02" speed="11.11" speedRelative="1.00" departed="0" arrived="0" entered="27" left="20" laneChangedFrom="0" laneChangedTo="0" flow="282.72"/>
        <edge id="4o" sampledSeconds="1480.66" traveltime="43.99" overlapTraveltime="44.44" density="10.10" overlapDensity="10.10" laneDensity="10.10" occupancy="5.05" waitingTime="0.00" timeLoss="0.07" speed="11.11" speedRelative="1.00" departed="0" arrived="0" entered="40" left="27" laneChangedFrom="0" laneChangedTo="0" flow="403.96"/>
        <edge id="4si" sampledSeconds="300.28" traveltime="17.07" overlapTraveltime="17.43" density="4.22" overlapDensity="4.22" laneDensity="1.41" occupancy="0.70" waitingTime="0.00" timeLoss="0.01" speed="13.89" speedRelative="1.00" departed="0" arrived="0" entered="20" left="16" laneChangedFrom="0" laneChangedTo="0" flow="211.04"/>
    </interval>
    <interval begin="300.00" end="600.00" id="dump_300">
        <edge id="1fi" sampledSeconds="2219.60" traveltime="22.50" overlapTraveltime="22.95" density="29.77" overlapDensity="29.77" laneDensity="29.77" occupancy="14.89" waitingTime="0.00" timeLoss="12.78" speed="11.05" speedRelative="0.99" departed="30" arrived="14" entered="71" left="82" laneChangedFrom="0" laneChangedTo="0" flow="1183.96"/>
        <edge id="1o" sampledSeconds="3315.43" traveltime="43.99" overlapTraveltime="44.44" density="22.62" overlapDensity="22.62" laneDensity="22.62" occupancy="11.31" waitingTime="0.00" timeLoss="0.16" speed="11.11" speedRelative="1.00" departed="0" arrived="0" entered="80" left="71" laneChangedFrom="0" laneChangedTo="0" flow="904.52"/>
        <edge id="1si" sampledSeconds="1392.94" traveltime="17.07" overlapTraveltime="17.43" density="19.58" overlapDensity="19.58" laneDensity="6.53" occupancy="3.26" waitingTime="0.00" timeLoss="0.05" speed="13.89" speedRelative="1.00" departed="0" arrived="0" entered="82" left="81" laneChangedFrom="0" laneChangedTo="0" flow="978.99"/>
        <edge id="2fi" sampledSeconds="2751.31" traveltime="22.93" overlapTraveltime="23.40" density="36.91" overlapDensity="36.91" laneDensity="36.91" occupancy="18.45" waitingTime="0.00" timeLoss="68.00" speed="10.84" speedRelative="0.98" departed="30" arrived="30" entered="90" left="90" laneChangedFrom="0" laneChangedTo="0" flow="1439.59"/>
        <edge id="2o" sampledSeconds="3950.26" traveltime="43.99" overlapTraveltime="44.44" density="26.95" overlapDensity="26.95" laneDensity="26.95" occupancy="13.47" waitingTime="0.00" timeLoss="0.21" speed="11.11" speedRelative="1.00" departed="0" arrived="0" entered="89" left="90" laneChangedFrom="0" laneChangedTo="0" flow="1077.71"/>
        <edge id="2si" sampledSeconds="1534.20" traveltime="17.07" overlapTraveltime="17.43" density="21.56" overlapDensity="21.56" laneDensity="7.19" occupancy="3.59" waitingTime="0.00" timeLoss="0.05" speed="13.89" speedRelative="1.00" departed="0" arrived="0" entered="90" left="89" laneChangedFrom="0" laneChangedTo="0" flow="1078.27"/>
        <edge id="3fi" sampledSeconds="3031.39" traveltime="23.60" overlapTraveltime="24.07" density="40.66" overlapDensity="40.66" laneDensity="40.66" occupancy="20.33" waitingTime="0.00" timeLoss="158.01" speed="10.53" speedRelative="0.95" departed="60" arrived="44" entered="71" left="82" laneChangedFrom="0" laneChangedTo="0" flow="1541.57"/>
        <edge id="3o" sampledSeconds="3329.59" traveltime="43.99" overlapTraveltime="44.44" density="22.71" overlapDensity="22.71" laneDensity="22.71" occupancy="11.36" waitingTime="0.00" timeLoss="0.19" speed="11.11" speedRelative="1.00" departed="0" arrived="0" entered="80" left="71" laneChangedFrom="0" laneChangedTo="0" flow="908.37"/>
        <edge id="3si" sampledSeconds="1391.97" traveltime="17.07" overlapTraveltime="17.43" density="19.57" overlapDensity="19.57" laneDensity="6.52" occupancy="3.26" waitingTime="0.00" timeLoss="0.05" speed="13.89" speedRelative="1.00" departed="0" arrived="0" entered="82" left="81" laneChangedFrom="0" laneChangedTo="0" flow="978.31"/>
        <edge id="4fi" sampledSeconds="2012.76" traveltime="22.37" overlapTraveltime="22.82" density="27.00" overlapDensity="27.00" laneDensity="27.00" occupancy="13.50" waitingTime="0.00" timeLoss="0.07" speed="11.11" speedRelative="1.00" departed="0" arrived="0" entered="90" left="90" laneChangedFrom="0" laneChangedTo="0" flow="1079.81"/>
        <edge id="4o" sampledSeconds="3957.76" traveltime="43.98" overlapTraveltime="44.44" density="27.00" overlapDensity="27.00" laneDensity="27.00" occupancy="13.50" waitingTime="0.00" timeLoss="0.19" speed="11.11" speedRelative="1.00" departed="0" arrived="0" entered="90" left="90" laneChangedFrom="0" laneChangedTo="0" flow="1079.76"/>
        <edge id="4si" sampledSeconds="1535.25" traveltime="17.07" overlapTraveltime="17.43" density="21.58" overlapDensity="21.58" laneDensity="7.19" occupancy="3.60" waitingTime="0.00" timeLoss="0.05" speed="13.89" speedRelative="1.00" departed="0" arrived="0" entered="90" left="89" laneChangedFrom="0" laneChangedTo="0" flow="1079.01"/>
    </interval>
    <interval begin="600.00" end="900.00" id="dump_300">
        <edge id="1fi" sampledSeconds="2683.95" traveltime="22.37" overlapTraveltime="22.82" density="36.00" overlapDensity="36.00" laneDensity="36.00" occupancy="18.00" waitingTime="0.00" timeLoss="0.09" speed="11.11" speedRelative="1.00" departed="30" arrived="30" entered="90" left="90" laneChangedFrom="0" laneChangedTo="0" flow="1439.89"/>
        <edge id="1o" sampledSeconds="3958.54" traveltime="43.98" overlapTraveltime="44.44" density="27.00" overlapDensity="27.00" laneDensity="27.00" occupancy="13.50" waitingTime="0.00" timeLoss="0.19" speed="11.11" speedRelative="1.00" departed="0" arrived="0" entered="90" left="90" laneChangedFrom="0" laneChangedTo="0" flow="1079.97"/>
        <edge id="1si" sampledSeconds="1536.45" traveltime="17.07" overlapTraveltime="17.43" density="21.60" overlapDensity="21.60" laneDensity="7.20" occupancy="3.60" waitingTime="0.00" timeLoss="0.05" speed="13.89" speedRelative="1.00" departed="0" arrived="0" entered="90" left="90" laneChangedFrom="0" laneChangedTo="0" flow="1079.85"/>
        <edge id="2fi" sampledSeconds="2730.57" traveltime="22.75" overlapTraveltime="23.21" density="36.63" overlapDensity="36.63" laneDensity="36.63" occupancy="18.31" waitingTime="0.00" timeLoss="46.50" speed="10.92" speedRelative="0.98" departed="30" arrived="30" entered="90" left="90" laneChangedFrom="0" laneChangedTo="0" flow="1440.00"/>
        <edge id="2o" sampledSeconds="3958.68" traveltime="43.99" overlapTraveltime="44.44" density="27.00" overlapDensity="27.00" laneDensity="27.00" occupancy="13.50" waitingTime="0.00" timeLoss="0.22" speed="11.11" speedRelative="1.00" departed="0" arrived="0" entered="90" left="90" laneChangedFrom="0" laneChangedTo="0" flow="1080.00"/>
        <edge id="2si" sampledSeconds="1536.66" traveltime="17.07" overlapTraveltime="17.43" density="21.60" overlapDensity="21.60" laneDensity="7.20" occupancy="3.60" waitingTime="0.00" timeLoss="0.05" speed="13.89" speedRelative="1.00" departed="0" arrived="0" entered="90" left="90" laneChangedFrom="0" laneChangedTo="0" flow="1080.00"/>
        <edge id="3fi" sampledSeconds="3605.03" traveltime="24.03" overlapTraveltime="24.52" density="48.36" overlapDensity="48.36" laneDensity="48.36" occupancy="24.18" waitingTime="0.00" timeLoss="249.96" speed="10.34" speedRelative="0.93" departed="60" arrived="60" entered="90" left="90" laneChangedFrom="0" laneChangedTo="0" flow="1799.99"/>
        <edge id="3o" sampledSeconds="3958.15" traveltime="43.99" overlapTraveltime="44.44" density="27.00" overlapDensity="27.00" laneDensity="27.00" occupancy="13.50" waitingTime="0.00" timeLoss="0.22" speed="11.11" speedRelative="1.00" departed="0" arrived="0" entered="90" left="90" laneChangedFrom="0" laneChangedTo="0" flow="1079.85"/>
        <edge id="3si" sampledSeconds="1536.66" traveltime="17.07" overlapTraveltime="17.43" density="21.60" overlapDensity="21.60" laneDensity="7.20" occupancy="3.60" waitingTime="0.00" timeLoss="0.05" speed="13.89" speedRelative="1.00" departed="0" arrived="0" entered="90" left="90" laneChangedFrom="0" laneChangedTo="0" flow="1080.00"/>
        <edge id="4fi" sampledSeconds="2013.12" traveltime="22.37" overlapTraveltime="22.82" density="27.00" overlapDensity="27.00" laneDensity="27.00" occupancy="13.50" waitingTime="0.00" timeLoss="0.07" speed="11.11" speedRelative="1.00" departed="0" arrived="0" entered="90" left="90" laneChangedFrom="0" laneChangedTo="0" flow="1080.00"/>
        <edge id="4o" sampledSeconds="3958.65" traveltime="43.98" overlapTraveltime="44.44" density="27.00" overlapDensity="27.00" laneDensity="27.00" occupancy="13.50" waitingTime="0.00" timeLoss="0.19" speed="11.11" speedRelative="1.00" departed="0" arrived="0" entered="90" left="90" laneChangedFrom="0" laneChangedTo="0" flow="1080.00"/>
        <edge id="4si" sampledSeconds="1536.66" traveltime="17.07" overlapTraveltime="17.43" density="21.60" overlapDensity="21.60" laneDensity="7.20" occupancy="3.60" waitingTime="0.00" timeLoss="0.05" speed="13.89" speedRelative="1.00" departed="0" arrived="0" entered="90" left="90" laneChangedFrom="0" laneChangedTo="0" flow="1080.00"/>
    </interval>
    <interval begin="900.00" end="1000.00" id="dump_300">
        <edge id="1fi" sampledSeconds="903.72" traveltime="22.38" overlapTraveltime="22.83" density="36.37" overlapDensity="36.37" laneDensity="36.37" occupancy="18.18" waitingTime="0.00" timeLoss="0.61" speed="11.10" speedRelative="1.00" departed="10" arrived="10" entered="30" left="30" laneChangedFrom="0" laneChangedTo="0" flow="1453.55"/>
        <edge id="1o" sampledSeconds="1332.55" traveltime="44.01" overlapTraveltime="44.46" density="27.27" overlapDensity="27.27" laneDensity="27.27" occupancy="13.64" waitingTime="0.00" timeLoss="0.78" speed="11.10" speedRelative="1.00" departed="0" arrived="0" entered="30" left="30" laneChangedFrom="0" laneChangedTo="0" flow="1090.06"/>
        <edge id="1si" sampledSeconds="517.22" traveltime="17.08" overlapTraveltime="17.44" density="21.81" overlapDensity="21.81" laneDensity="7.27" occupancy="3.63" waitingTime="0.00" timeLoss="0.13" speed="13.89" speedRelative="1.00" departed="0" arrived="0" entered="30" left="30" laneChangedFrom="0" laneChangedTo="0" flow="1090.30"/>
        <edge id="2fi" sampledSeconds="918.19" traveltime="22.81" overlapTraveltime="23.27" density="36.95" overlapDensity="36.95" laneDensity="36.95" occupancy="18.47" waitingTime="0.00" timeLoss="17.70" speed="10.90" speedRelative="0.98" departed="10" arrived="10" entered="30" left="30" laneChangedFrom="0" laneChangedTo="0" flow="1449.33"/>
        <edge id="2o" sampledSeconds="1332.56" traveltime="44.02" overlapTraveltime="44.47" density="27.27" overlapDensity="27.27" laneDensity="27.27" occupancy="13.64" waitingTime="0.00" timeLoss="1.12" speed="11.10" speedRelative="1.00" departed="0" arrived="0" entered="30" left="30" laneChangedFrom="0" laneChangedTo="0" flow="1089.78"/>
        <edge id="2si" sampledSeconds="518.22" traveltime="17.09" overlapTraveltime="17.45" density="21.85" overlapDensity="21.85" laneDensity="7.28" occupancy="3.64" waitingTime="0.00" timeLoss="0.39" speed="13.88" speedRelative="1.00" departed="0" arrived="0" entered="30" left="30" laneChangedFrom="0" laneChangedTo="0" flow="1091.86"/>
        <edge id="3fi" sampledSeconds="1212.32" traveltime="24.07" overlapTraveltime="24.56" density="48.79" overlapDensity="48.79" laneDensity="48.79" occupancy="24.39" waitingTime="0.00" timeLoss="85.92" speed="10.32" speedRelative="0.93" departed="20" arrived="20" entered="30" left="30" laneChangedFrom="0" laneChangedTo="0" flow="1812.94"/>
        <edge id="3o" sampledSeconds="1332.56" traveltime="43.99" overlapTraveltime="44.44" density="27.27" overlapDensity="27.27" laneDensity="27.27" occupancy="13.64" waitingTime="0.00" timeLoss="0.17" speed="11.11" speedRelative="1.00" departed="0" arrived="0" entered="30" left="30" laneChangedFrom="0" laneChangedTo="0" flow="1090.56"/>
        <edge id="3si" sampledSeconds="517.22" traveltime="17.08" overlapTraveltime="17.44" density="21.81" overlapDensity="21.81" laneDensity="7.27" occupancy="3.63" waitingTime="0.00" timeLoss="0.13" speed="13.89" speedRelative="1.00" departed="0" arrived="0" entered="30" left="30" laneChangedFrom="0" laneChangedTo="0" flow="1090.30"/>
        <edge id="4fi" sampledSeconds="678.04" traveltime="22.38" overlapTraveltime="22.83" density="27.29" overlapDensity="27.29" laneDensity="27.29" occupancy="13.64" waitingTime="0.00" timeLoss="0.24" speed="11.11" speedRelative="1.00" departed="0" arrived="0" entered="30" left="30" laneChangedFrom="0" laneChangedTo="0" flow="1090.92"/>
        <edge id="4o" sampledSeconds="1332.55" traveltime="44.02" overlapTraveltime="44.47" density="27.27" overlapDensity="27.27" laneDensity="27.27" occupancy="13.64" waitingTime="0.00" timeLoss="1.17" speed="11.10" speedRelative="1.00" departed="0" arrived="0" entered="30" left="30" laneChangedFrom="0" laneChangedTo="0" flow="1089.74"/>
        <edge id="4si" sampledSeconds="517.22" traveltime="17.10" overlapTraveltime="17.46" density="21.81" overlapDensity="21.81" laneDensity="7.27" occupancy="3.63" waitingTime="0.00" timeLoss="0.91" speed="13.87" speedRelative="1.00" departed="0" arrived="0" entered="30" left="30" laneChangedFrom="0" laneChangedTo="0" flow="1088.66"/>
    </interval>
</meandata>
