<?xml version="1.0" encoding="UTF-8"?>

<!-- generated on Fri Aug 24 13:48:14 2018 by Eclipse SUMO Version ad1c44c
This data file and the accompanying materials
are made available under the terms of the Eclipse Public License v2.0
which accompanies this distribution, and is available at
http://www.eclipse.org/legal/epl-v20.html
SPDX-License-Identifier: EPL-2.0
<configuration xmlns:xsi="http://www.w3.org/2001/XMLSchema-instance" xsi:noNamespaceSchemaLocation="http://sumo.dlr.de/xsd/sumoConfiguration.xsd">

    <input>
        <net-file value="net.net.xml"/>
        <route-files value="input_routes.rou.xml"/>
        <additional-files value="input_additional.add.xml"/>
    </input>

    <output>
        <write-license value="true"/>
    </output>

    <time>
        <begin value="0"/>
        <end value="1000"/>
    </time>

    <processing>
        <default.speeddev value="0"/>
    </processing>

    <report>
        <xml-validation value="never"/>
        <duration-log.disable value="true"/>
        <no-step-log value="true"/>
    </report>

</configuration>
-->

<meandata xmlns:xsi="http://www.w3.org/2001/XMLSchema-instance" xsi:noNamespaceSchemaLocation="http://sumo.dlr.de/xsd/meandata_file.xsd">
    <interval begin="0.00" end="300.00" id="dump_300">
        <edge id="1fi">
            <lane id="1fi_0" sampledSeconds="676.10" traveltime="25.50" overlapTraveltime="25.98" density="9.07" occupancy="4.48" waitingTime="0.00" speed="9.76" departed="20" arrived="0" entered="11" left="21" laneChangedFrom="0" laneChangedTo="0"/>
        </edge>
        <edge id="1o">
            <lane id="1o_0" sampledSeconds="567.26" traveltime="47.09" overlapTraveltime="47.61" density="3.87" occupancy="1.91" waitingTime="0.00" speed="10.37" departed="0" arrived="0" entered="12" left="11" laneChangedFrom="0" laneChangedTo="0"/>
        </edge>
        <edge id="1si">
            <lane id="1si_0" sampledSeconds="0.00" departed="0" arrived="0" entered="0" left="0" laneChangedFrom="0" laneChangedTo="0"/>
            <lane id="1si_1" sampledSeconds="55.70" traveltime="18.12" overlapTraveltime="18.57" density="0.78" occupancy="0.38" waitingTime="0.00" speed="13.04" departed="0" arrived="0" entered="3" left="3" laneChangedFrom="0" laneChangedTo="0"/>
            <lane id="1si_2" sampledSeconds="714.11" traveltime="41.15" overlapTraveltime="43.43" density="10.04" occupancy="4.94" waitingTime="289.00" speed="5.58" departed="0" arrived="0" entered="18" left="11" laneChangedFrom="0" laneChangedTo="0"/>
        </edge>
        <edge id="2fi">
            <lane id="2fi_0" sampledSeconds="684.10" traveltime="25.50" overlapTraveltime="25.97" density="9.18" occupancy="4.53" waitingTime="0.00" speed="9.76" departed="20" arrived="0" entered="9" left="25" laneChangedFrom="0" laneChangedTo="0"/>
        </edge>
        <edge id="2o">
            <lane id="2o_0" sampledSeconds="637.04" traveltime="47.14" overlapTraveltime="47.68" density="4.35" occupancy="2.15" waitingTime="0.00" speed="10.35" departed="0" arrived="0" entered="20" left="9" laneChangedFrom="0" laneChangedTo="0"/>
        </edge>
        <edge id="2si">
            <lane id="2si_0" sampledSeconds="259.69" traveltime="41.18" overlapTraveltime="42.05" density="3.65" occupancy="1.81" waitingTime="124.00" speed="5.76" departed="0" arrived="0" entered="7" left="0" laneChangedFrom="0" laneChangedTo="0"/>
            <lane id="2si_1" sampledSeconds="574.14" traveltime="33.98" overlapTraveltime="34.62" density="8.07" occupancy="3.98" waitingTime="215.00" speed="6.99" departed="0" arrived="0" entered="18" left="12" laneChangedFrom="0" laneChangedTo="0"/>
            <lane id="2si_2" sampledSeconds="0.00" departed="0" arrived="0" entered="0" left="0" laneChangedFrom="0" laneChangedTo="0"/>
        </edge>
        <edge id="3fi">
            <lane id="3fi_0" sampledSeconds="986.27" traveltime="26.21" overlapTraveltime="26.67" density="13.23" occupancy="6.56" waitingTime="0.00" speed="9.50" departed="40" arrived="0" entered="0" left="36" laneChangedFrom="0" laneChangedTo="0"/>
        </edge>
        <edge id="3o">
            <lane id="3o_0" sampledSeconds="107.37" traveltime="47.02" overlapTraveltime="47.50" density="0.73" occupancy="0.36" waitingTime="0.00" speed="10.39" departed="0" arrived="0" entered="6" left="0" laneChangedFrom="0" laneChangedTo="0"/>
        </edge>
        <edge id="3si">
            <lane id="3si_0" sampledSeconds="647.91" traveltime="37.75" overlapTraveltime="38.41" density="9.11" occupancy="4.49" waitingTime="267.00" speed="6.30" departed="0" arrived="0" entered="18" left="16" laneChangedFrom="0" laneChangedTo="0"/>
            <lane id="3si_1" sampledSeconds="606.22" traveltime="35.98" overlapTraveltime="36.64" density="8.52" occupancy="4.20" waitingTime="239.00" speed="6.61" departed="0" arrived="0" entered="17" left="16" laneChangedFrom="0" laneChangedTo="0"/>
            <lane id="3si_2" sampledSeconds="0.00" departed="0" arrived="0" entered="0" left="0" laneChangedFrom="0" laneChangedTo="0"/>
        </edge>
        <edge id="4fi">
            <lane id="4fi_0" sampledSeconds="268.57" traveltime="23.80" overlapTraveltime="24.27" density="3.60" occupancy="1.77" waitingTime="0.00" speed="10.45" departed="0" arrived="0" entered="12" left="11" laneChangedFrom="0" laneChangedTo="0"/>
        </edge>
        <edge id="4o">
            <lane id="4o_0" sampledSeconds="938.53" traveltime="47.02" overlapTraveltime="47.50" density="6.40" occupancy="3.17" waitingTime="0.00" speed="10.39" departed="0" arrived="0" entered="26" left="13" laneChangedFrom="0" laneChangedTo="0"/>
        </edge>
        <edge id="4si">
            <lane id="4si_0" sampledSeconds="0.00" departed="0" arrived="0" entered="0" left="0" laneChangedFrom="0" laneChangedTo="0"/>
            <lane id="4si_1" sampledSeconds="129.44" traveltime="18.07" overlapTraveltime="18.49" density="1.82" occupancy="0.89" waitingTime="0.00" speed="13.09" departed="0" arrived="0" entered="7" left="7" laneChangedFrom="0" laneChangedTo="0"/>
            <lane id="4si_2" sampledSeconds="226.04" traveltime="51.30" overlapTraveltime="57.52" density="3.18" occupancy="1.56" waitingTime="114.00" speed="4.21" departed="0" arrived="0" entered="4" left="3" laneChangedFrom="0" laneChangedTo="0"/>
        </edge>
    </interval>
    <interval begin="300.00" end="600.00" id="dump_300">
        <edge id="1fi">
            <lane id="1fi_0" sampledSeconds="1731.43" traveltime="24.74" overlapTraveltime="25.21" density="23.23" occupancy="11.43" waitingTime="0.00" speed="10.06" departed="29" arrived="0" entered="40" left="72" laneChangedFrom="0" laneChangedTo="0"/>
        </edge>
        <edge id="1o">
            <lane id="1o_0" sampledSeconds="2188.01" traveltime="46.98" overlapTraveltime="47.46" density="14.93" occupancy="7.38" waitingTime="0.00" speed="10.40" departed="0" arrived="0" entered="53" left="40" laneChangedFrom="0" laneChangedTo="0"/>
        </edge>
        <edge id="1si">
            <lane id="1si_0" sampledSeconds="435.48" traveltime="61.56" overlapTraveltime="62.25" density="6.12" occupancy="3.03" waitingTime="257.00" speed="3.89" departed="0" arrived="0" entered="7" left="7" laneChangedFrom="0" laneChangedTo="0"/>
            <lane id="1si_1" sampledSeconds="625.56" traveltime="18.10" overlapTraveltime="18.54" density="8.79" occupancy="4.29" waitingTime="0.00" speed="13.06" departed="0" arrived="0" entered="36" left="33" laneChangedFrom="0" laneChangedTo="0"/>
            <lane id="1si_2" sampledSeconds="3292.27" traveltime="123.39" overlapTraveltime="127.88" density="46.28" occupancy="22.98" waitingTime="2003.00" speed="1.89" departed="0" arrived="0" entered="29" left="20" laneChangedFrom="0" laneChangedTo="0"/>
        </edge>
        <edge id="2fi">
            <lane id="2fi_0" sampledSeconds="2588.89" traveltime="24.60" overlapTraveltime="25.07" density="34.73" occupancy="17.08" waitingTime="0.00" speed="10.11" departed="29" arrived="29" entered="77" left="74" laneChangedFrom="0" laneChangedTo="0"/>
        </edge>
        <edge id="2o">
            <lane id="2o_0" sampledSeconds="3768.24" traveltime="47.11" overlapTraveltime="47.63" density="25.71" occupancy="12.71" waitingTime="0.00" speed="10.36" departed="0" arrived="0" entered="79" left="77" laneChangedFrom="0" laneChangedTo="0"/>
        </edge>
        <edge id="2si">
            <lane id="2si_0" sampledSeconds="1744.96" traveltime="64.76" overlapTraveltime="65.34" density="24.53" occupancy="12.15" waitingTime="1031.00" speed="3.71" departed="0" arrived="0" entered="26" left="32" laneChangedFrom="0" laneChangedTo="0"/>
            <lane id="2si_1" sampledSeconds="1114.32" traveltime="36.71" overlapTraveltime="37.37" density="15.66" occupancy="7.71" waitingTime="429.00" speed="6.48" departed="0" arrived="0" entered="30" left="33" laneChangedFrom="0" laneChangedTo="0"/>
            <lane id="2si_2" sampledSeconds="944.73" traveltime="51.23" overlapTraveltime="55.67" density="13.28" occupancy="6.54" waitingTime="414.00" speed="4.35" departed="0" arrived="0" entered="18" left="11" laneChangedFrom="0" laneChangedTo="0"/>
        </edge>
        <edge id="3fi">
            <lane id="3fi_0" sampledSeconds="2324.09" traveltime="25.25" overlapTraveltime="25.73" density="31.17" occupancy="15.39" waitingTime="0.00" speed="9.85" departed="58" arrived="24" entered="37" left="65" laneChangedFrom="0" laneChangedTo="0"/>
        </edge>
        <edge id="3o">
            <lane id="3o_0" sampledSeconds="1856.35" traveltime="47.08" overlapTraveltime="47.60" density="12.66" occupancy="6.26" waitingTime="0.00" speed="10.37" departed="0" arrived="0" entered="41" left="37" laneChangedFrom="0" laneChangedTo="0"/>
        </edge>
        <edge id="3si">
            <lane id="3si_0" sampledSeconds="1348.66" traveltime="44.92" overlapTraveltime="45.62" density="18.96" occupancy="9.37" waitingTime="657.00" speed="5.31" departed="0" arrived="0" entered="30" left="26" laneChangedFrom="0" laneChangedTo="0"/>
            <lane id="3si_1" sampledSeconds="1392.57" traveltime="46.43" overlapTraveltime="47.10" density="19.57" occupancy="9.68" waitingTime="709.00" speed="5.14" departed="0" arrived="0" entered="31" left="26" laneChangedFrom="0" laneChangedTo="0"/>
            <lane id="3si_2" sampledSeconds="217.93" traveltime="41.29" overlapTraveltime="46.05" density="3.06" occupancy="1.50" waitingTime="90.00" speed="5.26" departed="0" arrived="0" entered="5" left="4" laneChangedFrom="0" laneChangedTo="0"/>
        </edge>
        <edge id="4fi">
            <lane id="4fi_0" sampledSeconds="1820.43" traveltime="23.88" overlapTraveltime="24.34" density="24.42" occupancy="11.97" waitingTime="0.00" speed="10.41" departed="0" arrived="0" entered="79" left="71" laneChangedFrom="0" laneChangedTo="0"/>
        </edge>
        <edge id="4o">
            <lane id="4o_0" sampledSeconds="3612.59" traveltime="47.03" overlapTraveltime="47.51" density="24.64" occupancy="12.19" waitingTime="0.00" speed="10.39" departed="0" arrived="0" entered="76" left="78" laneChangedFrom="0" laneChangedTo="0"/>
        </edge>
        <edge id="4si">
            <lane id="4si_0" sampledSeconds="1190.75" traveltime="49.64" overlapTraveltime="50.43" density="16.74" occupancy="8.29" waitingTime="603.00" speed="4.80" departed="0" arrived="0" entered="25" left="16" laneChangedFrom="0" laneChangedTo="0"/>
            <lane id="4si_1" sampledSeconds="463.24" traveltime="18.10" overlapTraveltime="18.53" density="6.51" occupancy="3.18" waitingTime="0.00" speed="13.07" departed="0" arrived="0" entered="25" left="25" laneChangedFrom="0" laneChangedTo="0"/>
            <lane id="4si_2" sampledSeconds="1257.83" traveltime="57.25" overlapTraveltime="61.61" density="17.68" occupancy="8.70" waitingTime="539.00" speed="3.93" departed="0" arrived="0" entered="21" left="20" laneChangedFrom="0" laneChangedTo="0"/>
        </edge>
    </interval>
    <interval begin="600.00" end="900.00" id="dump_300">
        <edge id="1fi">
            <lane id="1fi_0" sampledSeconds="2673.51" traveltime="24.50" overlapTraveltime="24.97" density="35.86" occupancy="17.64" waitingTime="0.00" speed="10.15" departed="30" arrived="16" entered="79" left="90" laneChangedFrom="0" laneChangedTo="0"/>
        </edge>
        <edge id="1o">
            <lane id="1o_0" sampledSeconds="3694.84" traveltime="47.08" overlapTraveltime="47.59" density="25.20" occupancy="12.47" waitingTime="0.00" speed="10.37" departed="0" arrived="0" entered="74" left="79" laneChangedFrom="0" laneChangedTo="0"/>
        </edge>
        <edge id="1si">
            <lane id="1si_0" sampledSeconds="1682.58" traveltime="57.04" overlapTraveltime="57.77" density="23.65" occupancy="11.71" waitingTime="943.00" speed="4.19" departed="0" arrived="0" entered="34" left="26" laneChangedFrom="0" laneChangedTo="0"/>
            <lane id="1si_1" sampledSeconds="734.12" traveltime="24.56" overlapTraveltime="25.12" density="10.32" occupancy="5.06" waitingTime="178.00" speed="9.64" departed="0" arrived="0" entered="27" left="29" laneChangedFrom="0" laneChangedTo="0"/>
            <lane id="1si_2" sampledSeconds="6721.94" traveltime="320.75" overlapTraveltime="326.34" density="94.48" occupancy="47.07" waitingTime="4213.00" speed="0.74" departed="0" arrived="0" entered="29" left="19" laneChangedFrom="0" laneChangedTo="0"/>
        </edge>
        <edge id="2fi">
            <lane id="2fi_0" sampledSeconds="2585.33" traveltime="24.59" overlapTraveltime="25.06" density="34.68" occupancy="17.07" waitingTime="0.00" speed="10.12" departed="31" arrived="27" entered="73" left="76" laneChangedFrom="0" laneChangedTo="0"/>
        </edge>
        <edge id="2o">
            <lane id="2o_0" sampledSeconds="3497.63" traveltime="47.08" overlapTraveltime="47.61" density="23.86" occupancy="11.80" waitingTime="0.00" speed="10.37" departed="0" arrived="0" entered="70" left="74" laneChangedFrom="0" laneChangedTo="0"/>
        </edge>
        <edge id="2si">
            <lane id="2si_0" sampledSeconds="1587.34" traveltime="55.67" overlapTraveltime="56.34" density="22.31" occupancy="11.05" waitingTime="873.00" speed="4.30" departed="0" arrived="0" entered="30" left="26" laneChangedFrom="0" laneChangedTo="0"/>
            <lane id="2si_1" sampledSeconds="992.96" traveltime="32.98" overlapTraveltime="33.58" density="13.96" occupancy="6.88" waitingTime="331.00" speed="7.21" departed="0" arrived="0" entered="28" left="30" laneChangedFrom="0" laneChangedTo="0"/>
            <lane id="2si_2" sampledSeconds="1297.51" traveltime="73.46" overlapTraveltime="79.11" density="18.24" occupancy="8.97" waitingTime="664.00" speed="3.06" departed="0" arrived="0" entered="17" left="22" laneChangedFrom="0" laneChangedTo="0"/>
        </edge>
        <edge id="3fi">
            <lane id="3fi_0" sampledSeconds="3037.19" traveltime="24.82" overlapTraveltime="25.29" density="40.74" occupancy="20.08" waitingTime="0.00" speed="10.02" departed="48" arrived="57" entered="72" left="65" laneChangedFrom="0" laneChangedTo="0"/>
        </edge>
        <edge id="3o">
            <lane id="3o_0" sampledSeconds="3562.80" traveltime="47.25" overlapTraveltime="47.78" density="24.30" occupancy="12.02" waitingTime="0.00" speed="10.33" departed="0" arrived="0" entered="76" left="72" laneChangedFrom="0" laneChangedTo="0"/>
        </edge>
        <edge id="3si">
            <lane id="3si_0" sampledSeconds="1185.91" traveltime="51.21" overlapTraveltime="51.90" density="16.67" occupancy="8.25" waitingTime="659.00" speed="4.67" departed="0" arrived="0" entered="22" left="22" laneChangedFrom="0" laneChangedTo="0"/>
            <lane id="3si_1" sampledSeconds="1062.05" traveltime="46.62" overlapTraveltime="47.29" density="14.93" occupancy="7.38" waitingTime="550.00" speed="5.12" departed="0" arrived="0" entered="21" left="22" laneChangedFrom="0" laneChangedTo="0"/>
            <lane id="3si_2" sampledSeconds="1216.95" traveltime="51.73" overlapTraveltime="55.74" density="17.11" occupancy="8.42" waitingTime="513.00" speed="4.34" departed="0" arrived="0" entered="22" left="18" laneChangedFrom="0" laneChangedTo="0"/>
        </edge>
        <edge id="4fi">
            <lane id="4fi_0" sampledSeconds="1784.26" traveltime="23.86" overlapTraveltime="24.32" density="23.93" occupancy="11.74" waitingTime="0.00" speed="10.42" departed="0" arrived="0" entered="69" left="76" laneChangedFrom="0" laneChangedTo="0"/>
        </edge>
        <edge id="4o">
            <lane id="4o_0" sampledSeconds="3333.77" traveltime="47.00" overlapTraveltime="47.48" density="22.74" occupancy="11.25" waitingTime="0.00" speed="10.40" departed="0" arrived="0" entered="70" left="69" laneChangedFrom="0" laneChangedTo="0"/>
        </edge>
        <edge id="4si">
            <lane id="4si_0" sampledSeconds="1890.26" traveltime="71.90" overlapTraveltime="72.57" density="26.57" occupancy="13.19" waitingTime="1184.00" speed="3.34" departed="0" arrived="0" entered="26" left="26" laneChangedFrom="0" laneChangedTo="0"/>
            <lane id="4si_1" sampledSeconds="640.62" traveltime="22.17" overlapTraveltime="22.66" density="9.00" occupancy="4.41" waitingTime="106.00" speed="10.69" departed="0" arrived="0" entered="30" left="25" laneChangedFrom="0" laneChangedTo="0"/>
            <lane id="4si_2" sampledSeconds="1243.41" traveltime="57.03" overlapTraveltime="61.50" density="17.48" occupancy="8.60" waitingTime="583.00" speed="3.94" departed="0" arrived="0" entered="20" left="17" laneChangedFrom="0" laneChangedTo="0"/>
        </edge>
    </interval>
    <interval begin="900.00" end="1000.00" id="dump_300">
        <edge id="1fi">
            <lane id="1fi_0" sampledSeconds="1278.69" traveltime="38.89" overlapTraveltime="40.90" density="51.46" occupancy="25.26" waitingTime="269.00" speed="6.20" departed="11" arrived="6" entered="25" left="17" laneChangedFrom="0" laneChangedTo="0"/>
        </edge>
        <edge id="1o">
            <lane id="1o_0" sampledSeconds="1188.40" traveltime="47.04" overlapTraveltime="47.58" density="24.32" occupancy="12.02" waitingTime="0.00" speed="10.38" departed="0" arrived="0" entered="27" left="25" laneChangedFrom="0" laneChangedTo="0"/>
        </edge>
        <edge id="1si">
            <lane id="1si_0" sampledSeconds="499.20" traveltime="84.86" overlapTraveltime="84.90" density="21.05" occupancy="10.46" waitingTime="323.00" speed="2.85" departed="0" arrived="0" entered="1" left="9" laneChangedFrom="0" laneChangedTo="0"/>
            <lane id="1si_1" sampledSeconds="195.52" traveltime="24.80" overlapTraveltime="25.37" density="8.24" occupancy="4.02" waitingTime="45.00" speed="9.55" departed="0" arrived="0" entered="8" left="8" laneChangedFrom="0" laneChangedTo="0"/>
            <lane id="1si_2" sampledSeconds="2864.90" traveltime="401.11" overlapTraveltime="406.25" density="120.81" occupancy="59.99" waitingTime="1469.00" speed="0.60" departed="0" arrived="0" entered="7" left="6" laneChangedFrom="0" laneChangedTo="0"/>
        </edge>
        <edge id="2fi">
            <lane id="2fi_0" sampledSeconds="845.32" traveltime="24.46" overlapTraveltime="24.93" density="34.02" occupancy="16.75" waitingTime="0.00" speed="10.17" departed="10" arrived="9" entered="23" left="25" laneChangedFrom="0" laneChangedTo="0"/>
        </edge>
        <edge id="2o">
            <lane id="2o_0" sampledSeconds="1036.40" traveltime="47.07" overlapTraveltime="47.56" density="21.21" occupancy="10.48" waitingTime="0.00" speed="10.38" departed="0" arrived="0" entered="23" left="22" laneChangedFrom="0" laneChangedTo="0"/>
        </edge>
        <edge id="2si">
            <lane id="2si_0" sampledSeconds="431.49" traveltime="49.92" overlapTraveltime="50.73" density="18.19" occupancy="9.02" waitingTime="221.00" speed="4.77" departed="0" arrived="0" entered="8" left="6" laneChangedFrom="0" laneChangedTo="0"/>
            <lane id="2si_1" sampledSeconds="358.10" traveltime="35.40" overlapTraveltime="36.02" density="15.10" occupancy="7.44" waitingTime="137.00" speed="6.72" departed="0" arrived="0" entered="11" left="9" laneChangedFrom="0" laneChangedTo="0"/>
            <lane id="2si_2" sampledSeconds="442.62" traveltime="57.65" overlapTraveltime="61.58" density="18.66" occupancy="9.21" waitingTime="234.00" speed="3.93" departed="0" arrived="0" entered="7" left="7" laneChangedFrom="0" laneChangedTo="0"/>
        </edge>
        <edge id="3fi">
            <lane id="3fi_0" sampledSeconds="952.23" traveltime="24.79" overlapTraveltime="25.26" density="38.32" occupancy="18.89" waitingTime="0.00" speed="10.04" departed="15" arrived="15" entered="23" left="23" laneChangedFrom="0" laneChangedTo="0"/>
        </edge>
        <edge id="3o">
            <lane id="3o_0" sampledSeconds="1217.04" traveltime="47.41" overlapTraveltime="47.94" density="24.91" occupancy="12.32" waitingTime="0.00" speed="10.30" departed="0" arrived="0" entered="25" left="24" laneChangedFrom="0" laneChangedTo="0"/>
        </edge>
        <edge id="3si">
            <lane id="3si_0" sampledSeconds="396.57" traveltime="51.16" overlapTraveltime="51.82" density="16.72" occupancy="8.24" waitingTime="204.00" speed="4.67" departed="0" arrived="0" entered="8" left="11" laneChangedFrom="0" laneChangedTo="0"/>
            <lane id="3si_1" sampledSeconds="367.71" traveltime="44.89" overlapTraveltime="45.59" density="15.51" occupancy="7.63" waitingTime="175.00" speed="5.31" departed="0" arrived="0" entered="9" left="11" laneChangedFrom="0" laneChangedTo="0"/>
            <lane id="3si_2" sampledSeconds="342.13" traveltime="51.13" overlapTraveltime="56.82" density="14.43" occupancy="7.06" waitingTime="131.00" speed="4.26" departed="0" arrived="0" entered="6" left="7" laneChangedFrom="0" laneChangedTo="0"/>
        </edge>
        <edge id="4fi">
            <lane id="4fi_0" sampledSeconds="483.75" traveltime="23.81" overlapTraveltime="24.28" density="19.47" occupancy="9.54" waitingTime="0.00" speed="10.44" departed="0" arrived="0" entered="22" left="20" laneChangedFrom="0" laneChangedTo="0"/>
        </edge>
        <edge id="4o">
            <lane id="4o_0" sampledSeconds="1027.81" traveltime="46.91" overlapTraveltime="47.39" density="21.03" occupancy="10.40" waitingTime="0.00" speed="10.42" departed="0" arrived="0" entered="22" left="22" laneChangedFrom="0" laneChangedTo="0"/>
        </edge>
        <edge id="4si">
            <lane id="4si_0" sampledSeconds="524.61" traveltime="65.16" overlapTraveltime="65.46" density="22.12" occupancy="10.94" waitingTime="297.00" speed="3.70" departed="0" arrived="0" entered="7" left="13" laneChangedFrom="0" laneChangedTo="0"/>
            <lane id="4si_1" sampledSeconds="167.54" traveltime="18.27" overlapTraveltime="18.83" density="7.06" occupancy="3.44" waitingTime="0.00" speed="12.86" departed="0" arrived="0" entered="8" left="10" laneChangedFrom="0" laneChangedTo="0"/>
            <lane id="4si_2" sampledSeconds="292.72" traveltime="50.51" overlapTraveltime="56.64" density="12.34" occupancy="6.03" waitingTime="104.00" speed="4.28" departed="0" arrived="0" entered="5" left="7" laneChangedFrom="0" laneChangedTo="0"/>
        </edge>
    </interval>
</meandata>
