<?xml version="1.0" encoding="UTF-8"?>

<!-- generated on 2021-08-16 15:45:58 by Eclipse SUMO sumo Version v1_9_2+1069-f9b761f
This data file and the accompanying materials
are made available under the terms of the Eclipse Public License v2.0
which accompanies this distribution, and is available at
http://www.eclipse.org/legal/epl-v20.html
SPDX-License-Identifier: EPL-2.0
<configuration xmlns:xsi="http://www.w3.org/2001/XMLSchema-instance" xsi:noNamespaceSchemaLocation="http://sumo.dlr.de/xsd/sumoConfiguration.xsd">

    <input>
        <net-file value="net.net.xml"/>
        <route-files value="input_routes.rou.xml"/>
        <additional-files value="input_additional.add.xml"/>
    </input>

    <output>
        <write-license value="true"/>
    </output>

    <time>
        <begin value="0"/>
        <end value="1000"/>
    </time>

    <processing>
        <default.speeddev value="0"/>
    </processing>

    <report>
        <xml-validation value="never"/>
        <xml-validation.routes value="never"/>
        <duration-log.disable value="true"/>
        <no-step-log value="true"/>
    </report>

</configuration>
-->

<meandata xmlns:xsi="http://www.w3.org/2001/XMLSchema-instance" xsi:noNamespaceSchemaLocation="http://sumo.dlr.de/xsd/meandata_file.xsd">
    <interval begin="0.00" end="900.00" id="dump_900">
        <edge id="1fi">
            <lane id="1fi_0" sampledSeconds="5114.57" traveltime="25.19" overlapTraveltime="25.66" density="22.87" laneDensity="22.87" occupancy="11.26" waitingTime="30.00" timeLoss="592.62" speed="9.88" departed="79" arrived="15" entered="128" left="177" laneChangedFrom="0" laneChangedTo="0"/>
        </edge>
        <edge id="1o">
            <lane id="1o_0" sampledSeconds="6359.72" traveltime="47.09" overlapTraveltime="47.59" density="14.46" laneDensity="14.46" occupancy="7.15" waitingTime="0.00" timeLoss="422.45" speed="10.37" departed="0" arrived="0" entered="137" left="128" laneChangedFrom="0" laneChangedTo="0"/>
        </edge>
        <edge id="1si">
            <lane id="1si_0" sampledSeconds="2059.97" traveltime="61.55" overlapTraveltime="62.21" density="9.65" laneDensity="9.65" occupancy="4.78" waitingTime="1196.00" timeLoss="1480.53" speed="3.89" departed="0" arrived="0" entered="35" left="33" laneChangedFrom="0" laneChangedTo="0"/>
            <lane id="1si_1" sampledSeconds="1413.96" traveltime="20.94" overlapTraveltime="21.43" density="6.62" laneDensity="6.62" occupancy="3.24" waitingTime="178.00" timeLoss="258.90" speed="11.30" departed="0" arrived="0" entered="66" left="65" laneChangedFrom="0" laneChangedTo="0"/>
            <lane id="1si_2" sampledSeconds="10869.99" traveltime="168.57" overlapTraveltime="172.91" density="50.93" laneDensity="50.93" occupancy="25.32" waitingTime="6395.00" timeLoss="9771.34" speed="1.40" departed="0" arrived="0" entered="76" left="51" laneChangedFrom="0" laneChangedTo="0"/>
        </edge>
        <edge id="2fi">
            <lane id="2fi_0" sampledSeconds="5861.02" traveltime="24.67" overlapTraveltime="25.14" density="26.21" laneDensity="26.21" occupancy="12.90" waitingTime="0.00" timeLoss="567.56" speed="10.08" departed="80" arrived="56" entered="159" left="174" laneChangedFrom="0" laneChangedTo="0"/>
        </edge>
        <edge id="2o">
            <lane id="2o_0" sampledSeconds="7837.01" traveltime="47.09" overlapTraveltime="47.61" density="17.82" laneDensity="17.82" occupancy="8.81" waitingTime="0.00" timeLoss="523.63" speed="10.37" departed="0" arrived="0" entered="168" left="159" laneChangedFrom="0" laneChangedTo="0"/>
        </edge>
        <edge id="2si">
            <lane id="2si_0" sampledSeconds="3520.97" traveltime="58.05" overlapTraveltime="58.73" density="16.50" laneDensity="16.50" occupancy="8.17" waitingTime="2013.00" timeLoss="2471.92" speed="4.12" departed="0" arrived="0" entered="62" left="57" laneChangedFrom="0" laneChangedTo="0"/>
            <lane id="2si_1" sampledSeconds="2696.69" traveltime="34.79" overlapTraveltime="35.41" density="12.63" laneDensity="12.63" occupancy="6.23" waitingTime="996.00" timeLoss="1363.62" speed="6.84" departed="0" arrived="0" entered="77" left="75" laneChangedFrom="0" laneChangedTo="0"/>
            <lane id="2si_2" sampledSeconds="2326.70" traveltime="63.43" overlapTraveltime="68.36" density="10.90" laneDensity="10.90" occupancy="5.37" waitingTime="1111.00" timeLoss="1731.67" speed="3.54" departed="0" arrived="0" entered="35" left="33" laneChangedFrom="0" laneChangedTo="0"/>
        </edge>
        <edge id="3fi">
            <lane id="3fi_0" sampledSeconds="6274.34" traveltime="25.22" overlapTraveltime="25.70" density="28.05" laneDensity="28.05" occupancy="13.86" waitingTime="0.00" timeLoss="726.84" speed="9.87" departed="146" arrived="79" entered="107" left="165" laneChangedFrom="0" laneChangedTo="0"/>
        </edge>
        <edge id="3o">
            <lane id="3o_0" sampledSeconds="5451.18" traveltime="47.13" overlapTraveltime="47.66" density="12.40" laneDensity="12.40" occupancy="6.13" waitingTime="0.00" timeLoss="369.36" speed="10.36" departed="0" arrived="0" entered="122" left="107" laneChangedFrom="0" laneChangedTo="0"/>
        </edge>
        <edge id="3si">
            <lane id="3si_0" sampledSeconds="3175.63" traveltime="45.70" overlapTraveltime="46.37" density="14.88" laneDensity="14.88" occupancy="7.36" waitingTime="1586.00" timeLoss="1977.21" speed="5.22" departed="0" arrived="0" entered="69" left="64" laneChangedFrom="0" laneChangedTo="0"/>
            <lane id="3si_1" sampledSeconds="3062.02" traveltime="44.65" overlapTraveltime="45.32" density="14.35" laneDensity="14.35" occupancy="7.09" waitingTime="1528.00" timeLoss="1879.97" speed="5.34" departed="0" arrived="0" entered="69" left="63" laneChangedFrom="0" laneChangedTo="0"/>
            <lane id="3si_2" sampledSeconds="1278.18" traveltime="44.55" overlapTraveltime="48.83" density="5.99" laneDensity="5.99" occupancy="2.94" waitingTime="530.00" timeLoss="820.82" speed="4.96" departed="0" arrived="0" entered="27" left="20" laneChangedFrom="0" laneChangedTo="0"/>
        </edge>
        <edge id="4fi">
            <lane id="4fi_0" sampledSeconds="3832.02" traveltime="23.85" overlapTraveltime="24.31" density="17.13" laneDensity="17.13" occupancy="8.40" waitingTime="0.00" timeLoss="257.88" speed="10.43" departed="0" arrived="0" entered="158" left="157" laneChangedFrom="0" laneChangedTo="0"/>
        </edge>
        <edge id="4o">
            <lane id="4o_0" sampledSeconds="7806.87" traveltime="47.04" overlapTraveltime="47.52" density="17.75" laneDensity="17.75" occupancy="8.78" waitingTime="0.00" timeLoss="506.95" speed="10.39" departed="0" arrived="0" entered="171" left="158" laneChangedFrom="0" laneChangedTo="0"/>
        </edge>
        <edge id="4si">
            <lane id="4si_0" sampledSeconds="3099.36" traveltime="61.66" overlapTraveltime="62.41" density="14.52" laneDensity="14.52" occupancy="7.20" waitingTime="1811.00" timeLoss="2230.50" speed="3.88" departed="0" arrived="0" entered="51" left="42" laneChangedFrom="0" laneChangedTo="0"/>
            <lane id="4si_1" sampledSeconds="1221.61" traveltime="20.03" overlapTraveltime="20.48" density="5.72" laneDensity="5.72" occupancy="2.80" waitingTime="108.00" timeLoss="177.22" speed="11.83" departed="0" arrived="0" entered="62" left="56" laneChangedFrom="0" laneChangedTo="0"/>
            <lane id="4si_2" sampledSeconds="2875.55" traveltime="61.47" overlapTraveltime="66.00" density="13.47" laneDensity="13.47" occupancy="6.64" waitingTime="1370.00" timeLoss="2113.88" speed="3.67" departed="0" arrived="0" entered="44" left="39" laneChangedFrom="0" laneChangedTo="0"/>
        </edge>
    </interval>
    <interval begin="900.00" end="1000.00" id="dump_900">
        <edge id="1fi">
            <lane id="1fi_0" sampledSeconds="1308.27" traveltime="38.18" overlapTraveltime="39.02" density="52.65" laneDensity="52.65" occupancy="25.97" waitingTime="177.00" timeLoss="546.33" speed="6.50" departed="10" arrived="5" entered="27" left="25" laneChangedFrom="0" laneChangedTo="0"/>
        </edge>
        <edge id="1o">
            <lane id="1o_0" sampledSeconds="1256.80" traveltime="47.09" overlapTraveltime="47.60" density="25.72" laneDensity="25.72" occupancy="12.72" waitingTime="0.00" timeLoss="83.64" speed="10.37" departed="0" arrived="0" entered="28" left="27" laneChangedFrom="0" laneChangedTo="0"/>
        </edge>
        <edge id="1si">
            <lane id="1si_0" sampledSeconds="452.04" traveltime="50.22" overlapTraveltime="50.87" density="19.06" laneDensity="19.06" occupancy="9.44" waitingTime="207.00" timeLoss="296.63" speed="4.76" departed="0" arrived="0" entered="7" left="9" laneChangedFrom="0" laneChangedTo="0"/>
            <lane id="1si_1" sampledSeconds="210.86" traveltime="23.48" overlapTraveltime="24.06" density="8.89" laneDensity="8.89" occupancy="4.34" waitingTime="45.00" timeLoss="57.05" speed="10.06" departed="0" arrived="0" entered="9" left="9" laneChangedFrom="0" laneChangedTo="0"/>
            <lane id="1si_2" sampledSeconds="2772.76" traveltime="309.65" overlapTraveltime="313.84" density="116.92" laneDensity="116.92" occupancy="58.07" waitingTime="1377.00" timeLoss="2618.37" speed="0.77" departed="0" arrived="0" entered="8" left="7" laneChangedFrom="0" laneChangedTo="0"/>
        </edge>
        <edge id="2fi">
            <lane id="2fi_0" sampledSeconds="797.61" traveltime="24.54" overlapTraveltime="25.00" density="32.10" laneDensity="32.10" occupancy="15.80" waitingTime="0.00" timeLoss="73.36" speed="10.14" departed="10" arrived="9" entered="22" left="25" laneChangedFrom="0" laneChangedTo="0"/>
        </edge>
        <edge id="2o">
            <lane id="2o_0" sampledSeconds="1084.18" traveltime="46.96" overlapTraveltime="47.46" density="22.19" laneDensity="22.19" occupancy="10.97" waitingTime="0.00" timeLoss="69.23" speed="10.40" departed="0" arrived="0" entered="25" left="22" laneChangedFrom="0" laneChangedTo="0"/>
        </edge>
        <edge id="2si">
            <lane id="2si_0" sampledSeconds="471.76" traveltime="51.89" overlapTraveltime="52.67" density="19.89" laneDensity="19.89" occupancy="9.86" waitingTime="247.00" timeLoss="315.17" speed="4.60" departed="0" arrived="0" entered="9" left="7" laneChangedFrom="0" laneChangedTo="0"/>
            <lane id="2si_1" sampledSeconds="389.98" traveltime="38.03" overlapTraveltime="38.70" density="16.44" laneDensity="16.44" occupancy="8.12" waitingTime="163.00" timeLoss="213.82" speed="6.26" departed="0" arrived="0" entered="11" left="8" laneChangedFrom="0" laneChangedTo="0"/>
            <lane id="2si_2" sampledSeconds="407.28" traveltime="68.37" overlapTraveltime="73.41" density="17.17" laneDensity="17.17" occupancy="8.48" waitingTime="243.00" timeLoss="310.17" speed="3.30" departed="0" arrived="0" entered="5" left="6" laneChangedFrom="0" laneChangedTo="0"/>
        </edge>
        <edge id="3fi">
            <lane id="3fi_0" sampledSeconds="995.67" traveltime="24.94" overlapTraveltime="25.41" density="40.07" laneDensity="40.07" occupancy="19.74" waitingTime="0.00" timeLoss="105.12" speed="9.98" departed="15" arrived="16" entered="24" left="23" laneChangedFrom="0" laneChangedTo="0"/>
        </edge>
        <edge id="3o">
            <lane id="3o_0" sampledSeconds="1208.23" traveltime="47.34" overlapTraveltime="47.90" density="24.73" laneDensity="24.73" occupancy="12.23" waitingTime="0.00" timeLoss="87.52" speed="10.31" departed="0" arrived="0" entered="24" left="24" laneChangedFrom="0" laneChangedTo="0"/>
        </edge>
        <edge id="3si">
            <lane id="3si_0" sampledSeconds="362.56" traveltime="45.02" overlapTraveltime="45.69" density="15.29" laneDensity="15.29" occupancy="7.52" waitingTime="170.00" timeLoss="223.47" speed="5.30" departed="0" arrived="0" entered="9" left="11" laneChangedFrom="0" laneChangedTo="0"/>
            <lane id="3si_1" sampledSeconds="326.04" traveltime="39.10" overlapTraveltime="39.75" density="13.75" laneDensity="13.75" occupancy="6.75" waitingTime="138.00" timeLoss="182.26" speed="6.09" departed="0" arrived="0" entered="8" left="12" laneChangedFrom="0" laneChangedTo="0"/>
            <lane id="3si_2" sampledSeconds="396.31" traveltime="56.99" overlapTraveltime="61.81" density="16.71" laneDensity="16.71" occupancy="8.21" waitingTime="158.00" timeLoss="284.05" speed="3.92" departed="0" arrived="0" entered="6" left="9" laneChangedFrom="0" laneChangedTo="0"/>
        </edge>
        <edge id="4fi">
            <lane id="4fi_0" sampledSeconds="519.38" traveltime="23.79" overlapTraveltime="24.26" density="20.90" laneDensity="20.90" occupancy="10.24" waitingTime="0.00" timeLoss="33.86" speed="10.45" departed="0" arrived="0" entered="23" left="21" laneChangedFrom="0" laneChangedTo="0"/>
        </edge>
        <edge id="4o">
            <lane id="4o_0" sampledSeconds="1187.56" traveltime="47.12" overlapTraveltime="47.60" density="24.30" laneDensity="24.30" occupancy="12.03" waitingTime="0.00" timeLoss="78.92" speed="10.37" departed="0" arrived="0" entered="25" left="24" laneChangedFrom="0" laneChangedTo="0"/>
        </edge>
        <edge id="4si">
            <lane id="4si_0" sampledSeconds="471.27" traveltime="65.80" overlapTraveltime="65.97" density="19.87" laneDensity="19.87" occupancy="9.82" waitingTime="257.00" timeLoss="345.75" speed="3.67" departed="0" arrived="0" entered="6" left="13" laneChangedFrom="0" laneChangedTo="0"/>
            <lane id="4si_1" sampledSeconds="162.78" traveltime="18.15" overlapTraveltime="18.71" density="6.86" laneDensity="6.86" occupancy="3.34" waitingTime="0.00" timeLoss="10.45" speed="12.94" departed="0" arrived="0" entered="8" left="10" laneChangedFrom="0" laneChangedTo="0"/>
            <lane id="4si_2" sampledSeconds="404.86" traveltime="53.47" overlapTraveltime="59.17" density="17.07" laneDensity="17.07" occupancy="8.39" waitingTime="182.00" timeLoss="285.28" speed="4.09" departed="0" arrived="0" entered="7" left="7" laneChangedFrom="0" laneChangedTo="0"/>
        </edge>
    </interval>
</meandata>
