<?xml version="1.0" encoding="UTF-8"?>

<!-- generated on 2023-03-01 13:04:25 by Eclipse SUMO sumo Version v1_16_0+0850-438bb8b
This data file and the accompanying materials
are made available under the terms of the Eclipse Public License v2.0
which accompanies this distribution, and is available at
http://www.eclipse.org/legal/epl-v20.html
This file may also be made available under the following Secondary
Licenses when the conditions for such availability set forth in the Eclipse
Public License 2.0 are satisfied: GNU General Public License, version 2
or later which is available at
https://www.gnu.org/licenses/old-licenses/gpl-2.0-standalone.html
SPDX-License-Identifier: EPL-2.0 OR GPL-2.0-or-later
<configuration xmlns:xsi="http://www.w3.org/2001/XMLSchema-instance" xsi:noNamespaceSchemaLocation="http://sumo.dlr.de/xsd/sumoConfiguration.xsd">

    <input>
        <net-file value="net.net.xml"/>
        <route-files value="input_routes.rou.xml"/>
        <additional-files value="input_additional.add.xml"/>
    </input>

    <output>
        <write-license value="true"/>
    </output>

    <time>
        <begin value="0"/>
        <end value="1000"/>
    </time>

    <processing>
        <default.speeddev value="0"/>
    </processing>

    <report>
        <xml-validation value="never"/>
        <duration-log.disable value="true"/>
        <no-step-log value="true"/>
    </report>

</configuration>
-->

<meandata xmlns:xsi="http://www.w3.org/2001/XMLSchema-instance" xsi:noNamespaceSchemaLocation="http://sumo.dlr.de/xsd/meandata_file.xsd">
    <interval begin="0.00" end="300.00" id="dump_300">
        <edge id="1fi">
            <lane id="1fi_0" sampledSeconds="678.59" traveltime="25.61" overlapTraveltime="26.08" density="9.10" laneDensity="9.10" occupancy="4.50" waitingTime="0.00" timeLoss="88.19" speed="9.72" speedRelative="0.87" departed="20" arrived="0" entered="11" left="21" laneChangedFrom="0" laneChangedTo="0"/>
        </edge>
        <edge id="1o">
            <lane id="1o_0" sampledSeconds="564.31" traveltime="46.85" overlapTraveltime="47.35" density="3.85" laneDensity="3.85" occupancy="1.91" waitingTime="0.00" timeLoss="34.81" speed="10.42" speedRelative="0.94" departed="0" arrived="0" entered="12" left="11" laneChangedFrom="0" laneChangedTo="0"/>
        </edge>
        <edge id="1si">
            <lane id="1si_0" sampledSeconds="0.00" departed="0" arrived="0" entered="0" left="0" laneChangedFrom="0" laneChangedTo="0"/>
            <lane id="1si_1" sampledSeconds="55.14" traveltime="17.96" overlapTraveltime="18.38" density="0.77" laneDensity="0.77" occupancy="0.38" waitingTime="0.00" timeLoss="2.54" speed="13.18" speedRelative="0.95" departed="0" arrived="0" entered="3" left="3" laneChangedFrom="0" laneChangedTo="0"/>
            <lane id="1si_2" sampledSeconds="712.37" traveltime="41.12" overlapTraveltime="43.34" density="10.01" laneDensity="10.01" occupancy="4.93" waitingTime="289.00" timeLoss="425.21" speed="5.59" speedRelative="0.40" departed="0" arrived="0" entered="18" left="11" laneChangedFrom="0" laneChangedTo="0"/>
        </edge>
        <edge id="2fi">
            <lane id="2fi_0" sampledSeconds="684.58" traveltime="25.54" overlapTraveltime="26.00" density="9.18" laneDensity="9.18" occupancy="4.54" waitingTime="0.00" timeLoss="87.42" speed="9.75" speedRelative="0.88" departed="20" arrived="0" entered="9" left="25" laneChangedFrom="0" laneChangedTo="0"/>
        </edge>
        <edge id="2o">
            <lane id="2o_0" sampledSeconds="628.09" traveltime="47.06" overlapTraveltime="47.58" density="4.28" laneDensity="4.28" occupancy="2.12" waitingTime="0.00" timeLoss="41.57" speed="10.37" speedRelative="0.93" departed="0" arrived="0" entered="19" left="9" laneChangedFrom="0" laneChangedTo="0"/>
        </edge>
        <edge id="2si">
            <lane id="2si_0" sampledSeconds="257.12" traveltime="40.77" overlapTraveltime="41.63" density="3.61" laneDensity="3.61" occupancy="1.80" waitingTime="119.00" timeLoss="149.45" speed="5.82" speedRelative="0.42" departed="0" arrived="0" entered="7" left="0" laneChangedFrom="0" laneChangedTo="0"/>
            <lane id="2si_1" sampledSeconds="569.70" traveltime="33.71" overlapTraveltime="34.33" density="8.01" laneDensity="8.01" occupancy="3.95" waitingTime="212.00" timeLoss="279.57" speed="7.05" speedRelative="0.51" departed="0" arrived="0" entered="18" left="12" laneChangedFrom="0" laneChangedTo="0"/>
            <lane id="2si_2" sampledSeconds="0.00" departed="0" arrived="0" entered="0" left="0" laneChangedFrom="0" laneChangedTo="0"/>
        </edge>
        <edge id="3fi">
            <lane id="3fi_0" sampledSeconds="985.48" traveltime="26.15" overlapTraveltime="26.63" density="13.22" laneDensity="13.22" occupancy="6.55" waitingTime="0.00" timeLoss="146.06" speed="9.52" speedRelative="0.86" departed="40" arrived="0" entered="0" left="36" laneChangedFrom="0" laneChangedTo="0"/>
        </edge>
        <edge id="3o">
            <lane id="3o_0" sampledSeconds="105.36" traveltime="46.95" overlapTraveltime="47.43" density="0.72" laneDensity="0.72" occupancy="0.35" waitingTime="0.00" timeLoss="6.66" speed="10.41" speedRelative="0.94" departed="0" arrived="0" entered="6" left="0" laneChangedFrom="0" laneChangedTo="0"/>
        </edge>
        <edge id="3si">
            <lane id="3si_0" sampledSeconds="653.44" traveltime="38.02" overlapTraveltime="38.70" density="9.18" laneDensity="9.18" occupancy="4.53" waitingTime="273.00" timeLoss="357.92" speed="6.26" speedRelative="0.45" departed="0" arrived="0" entered="18" left="16" laneChangedFrom="0" laneChangedTo="0"/>
            <lane id="3si_1" sampledSeconds="607.92" traveltime="36.08" overlapTraveltime="36.73" density="8.54" laneDensity="8.54" occupancy="4.21" waitingTime="236.00" timeLoss="318.34" speed="6.59" speedRelative="0.47" departed="0" arrived="0" entered="18" left="16" laneChangedFrom="0" laneChangedTo="0"/>
            <lane id="3si_2" sampledSeconds="0.00" departed="0" arrived="0" entered="0" left="0" laneChangedFrom="0" laneChangedTo="0"/>
        </edge>
        <edge id="4fi">
            <lane id="4fi_0" sampledSeconds="268.52" traveltime="23.78" overlapTraveltime="24.24" density="3.60" laneDensity="3.60" occupancy="1.76" waitingTime="0.00" timeLoss="17.10" speed="10.46" speedRelative="0.94" departed="0" arrived="0" entered="12" left="11" laneChangedFrom="0" laneChangedTo="0"/>
        </edge>
        <edge id="4o">
            <lane id="4o_0" sampledSeconds="940.63" traveltime="47.03" overlapTraveltime="47.51" density="6.42" laneDensity="6.42" occupancy="3.17" waitingTime="0.00" timeLoss="60.90" speed="10.39" speedRelative="0.94" departed="0" arrived="0" entered="26" left="13" laneChangedFrom="0" laneChangedTo="0"/>
        </edge>
        <edge id="4si">
            <lane id="4si_0" sampledSeconds="0.00" departed="0" arrived="0" entered="0" left="0" laneChangedFrom="0" laneChangedTo="0"/>
            <lane id="4si_1" sampledSeconds="129.56" traveltime="18.08" overlapTraveltime="18.51" density="1.82" laneDensity="1.82" occupancy="0.89" waitingTime="0.00" timeLoss="6.93" speed="13.08" speedRelative="0.94" departed="0" arrived="0" entered="7" left="7" laneChangedFrom="0" laneChangedTo="0"/>
            <lane id="4si_2" sampledSeconds="231.35" traveltime="52.40" overlapTraveltime="60.11" density="3.25" laneDensity="3.25" occupancy="1.60" waitingTime="133.00" timeLoss="164.20" speed="4.03" speedRelative="0.29" departed="0" arrived="0" entered="4" left="2" laneChangedFrom="0" laneChangedTo="0"/>
        </edge>
    </interval>
    <interval begin="300.00" end="600.00" id="dump_300">
        <edge id="1fi">
            <lane id="1fi_0" sampledSeconds="1733.83" traveltime="24.78" overlapTraveltime="25.24" density="23.26" laneDensity="23.26" occupancy="11.45" waitingTime="0.00" timeLoss="176.74" speed="10.04" speedRelative="0.90" departed="29" arrived="0" entered="40" left="72" laneChangedFrom="0" laneChangedTo="0"/>
        </edge>
        <edge id="1o">
            <lane id="1o_0" sampledSeconds="2171.76" traveltime="47.06" overlapTraveltime="47.55" density="14.81" laneDensity="14.81" occupancy="7.33" waitingTime="0.00" timeLoss="142.27" speed="10.38" speedRelative="0.93" departed="0" arrived="0" entered="53" left="40" laneChangedFrom="0" laneChangedTo="0"/>
        </edge>
        <edge id="1si">
            <lane id="1si_0" sampledSeconds="433.02" traveltime="61.25" overlapTraveltime="62.00" density="6.09" laneDensity="6.09" occupancy="3.02" waitingTime="252.00" timeLoss="310.77" speed="3.91" speedRelative="0.28" departed="0" arrived="0" entered="7" left="7" laneChangedFrom="0" laneChangedTo="0"/>
            <lane id="1si_1" sampledSeconds="685.57" traveltime="19.84" overlapTraveltime="20.31" density="9.64" laneDensity="9.64" occupancy="4.71" waitingTime="56.00" timeLoss="94.08" speed="11.92" speedRelative="0.86" departed="0" arrived="0" entered="36" left="32" laneChangedFrom="0" laneChangedTo="0"/>
            <lane id="1si_2" sampledSeconds="3942.71" traveltime="163.87" overlapTraveltime="169.60" density="55.42" laneDensity="55.42" occupancy="27.57" waitingTime="2702.00" timeLoss="3536.64" speed="1.43" speedRelative="0.10" departed="0" arrived="0" entered="29" left="16" laneChangedFrom="0" laneChangedTo="0"/>
        </edge>
        <edge id="2fi">
            <lane id="2fi_0" sampledSeconds="2426.81" traveltime="24.48" overlapTraveltime="24.95" density="32.55" laneDensity="32.55" occupancy="16.02" waitingTime="0.00" timeLoss="217.35" speed="10.16" speedRelative="0.91" departed="29" arrived="29" entered="71" left="68" laneChangedFrom="0" laneChangedTo="0"/>
        </edge>
        <edge id="2o">
            <lane id="2o_0" sampledSeconds="3423.35" traveltime="46.98" overlapTraveltime="47.47" density="23.35" laneDensity="23.35" occupancy="11.55" waitingTime="0.00" timeLoss="219.18" speed="10.40" speedRelative="0.94" departed="0" arrived="0" entered="73" left="71" laneChangedFrom="0" laneChangedTo="0"/>
        </edge>
        <edge id="2si">
            <lane id="2si_0" sampledSeconds="1745.30" traveltime="64.72" overlapTraveltime="65.24" density="24.53" laneDensity="24.53" occupancy="12.15" waitingTime="1037.00" timeLoss="1276.72" speed="3.71" speedRelative="0.27" departed="0" arrived="0" entered="26" left="32" laneChangedFrom="0" laneChangedTo="0"/>
            <lane id="2si_1" sampledSeconds="1147.35" traveltime="37.88" overlapTraveltime="38.54" density="16.13" laneDensity="16.13" occupancy="7.94" waitingTime="464.00" timeLoss="626.21" speed="6.28" speedRelative="0.45" departed="0" arrived="0" entered="30" left="33" laneChangedFrom="0" laneChangedTo="0"/>
            <lane id="2si_2" sampledSeconds="627.42" traveltime="46.99" overlapTraveltime="52.95" density="8.82" laneDensity="8.82" occupancy="4.32" waitingTime="268.00" timeLoss="420.42" speed="4.57" speedRelative="0.33" departed="0" arrived="0" entered="12" left="10" laneChangedFrom="0" laneChangedTo="0"/>
        </edge>
        <edge id="3fi">
            <lane id="3fi_0" sampledSeconds="2310.58" traveltime="25.34" overlapTraveltime="25.81" density="30.99" laneDensity="30.99" occupancy="15.32" waitingTime="0.00" timeLoss="277.27" speed="9.82" speedRelative="0.88" departed="58" arrived="24" entered="36" left="65" laneChangedFrom="0" laneChangedTo="0"/>
        </edge>
        <edge id="3o">
            <lane id="3o_0" sampledSeconds="1808.33" traveltime="47.05" overlapTraveltime="47.58" density="12.34" laneDensity="12.34" occupancy="6.10" waitingTime="0.00" timeLoss="119.77" speed="10.37" speedRelative="0.93" departed="0" arrived="0" entered="40" left="36" laneChangedFrom="0" laneChangedTo="0"/>
        </edge>
        <edge id="3si">
            <lane id="3si_0" sampledSeconds="1356.64" traveltime="45.46" overlapTraveltime="46.16" density="19.07" laneDensity="19.07" occupancy="9.43" waitingTime="667.00" timeLoss="842.53" speed="5.25" speedRelative="0.38" departed="0" arrived="0" entered="30" left="25" laneChangedFrom="0" laneChangedTo="0"/>
            <lane id="3si_1" sampledSeconds="1332.59" traveltime="44.63" overlapTraveltime="45.32" density="18.73" laneDensity="18.73" occupancy="9.27" waitingTime="656.00" timeLoss="818.07" speed="5.34" speedRelative="0.38" departed="0" arrived="0" entered="30" left="25" laneChangedFrom="0" laneChangedTo="0"/>
            <lane id="3si_2" sampledSeconds="232.54" traveltime="43.06" overlapTraveltime="49.19" density="3.27" laneDensity="3.27" occupancy="1.60" waitingTime="96.00" timeLoss="149.93" speed="4.92" speedRelative="0.35" departed="0" arrived="0" entered="5" left="4" laneChangedFrom="0" laneChangedTo="0"/>
        </edge>
        <edge id="4fi">
            <lane id="4fi_0" sampledSeconds="1744.31" traveltime="23.87" overlapTraveltime="24.34" density="23.40" laneDensity="23.40" occupancy="11.47" waitingTime="0.00" timeLoss="118.77" speed="10.42" speedRelative="0.94" departed="0" arrived="0" entered="75" left="68" laneChangedFrom="0" laneChangedTo="0"/>
        </edge>
        <edge id="4o">
            <lane id="4o_0" sampledSeconds="3401.29" traveltime="47.09" overlapTraveltime="47.57" density="23.20" laneDensity="23.20" occupancy="11.48" waitingTime="0.00" timeLoss="224.29" speed="10.38" speedRelative="0.93" departed="0" arrived="0" entered="71" left="74" laneChangedFrom="0" laneChangedTo="0"/>
        </edge>
        <edge id="4si">
            <lane id="4si_0" sampledSeconds="1195.62" traveltime="49.85" overlapTraveltime="50.65" density="16.81" laneDensity="16.81" occupancy="8.33" waitingTime="607.00" timeLoss="782.93" speed="4.78" speedRelative="0.34" departed="0" arrived="0" entered="25" left="16" laneChangedFrom="0" laneChangedTo="0"/>
            <lane id="4si_1" sampledSeconds="508.32" traveltime="19.15" overlapTraveltime="19.57" density="7.14" laneDensity="7.14" occupancy="3.49" waitingTime="24.00" timeLoss="53.19" speed="12.37" speedRelative="0.89" departed="0" arrived="0" entered="26" left="25" laneChangedFrom="0" laneChangedTo="0"/>
            <lane id="4si_2" sampledSeconds="1735.67" traveltime="96.68" overlapTraveltime="102.91" density="24.40" laneDensity="24.40" occupancy="12.07" waitingTime="1092.00" timeLoss="1440.72" speed="2.35" speedRelative="0.17" departed="0" arrived="0" entered="17" left="15" laneChangedFrom="0" laneChangedTo="0"/>
        </edge>
    </interval>
    <interval begin="600.00" end="900.00" id="dump_300">
        <edge id="1fi">
            <lane id="1fi_0" sampledSeconds="3525.52" traveltime="36.63" overlapTraveltime="37.90" density="47.29" laneDensity="47.29" occupancy="23.28" waitingTime="591.00" timeLoss="1412.19" speed="6.69" speedRelative="0.60" departed="30" arrived="12" entered="72" left="69" laneChangedFrom="0" laneChangedTo="0"/>
        </edge>
        <edge id="1o">
            <lane id="1o_0" sampledSeconds="3403.74" traveltime="47.02" overlapTraveltime="47.52" density="23.22" laneDensity="23.22" occupancy="11.49" waitingTime="0.00" timeLoss="220.85" speed="10.39" speedRelative="0.94" departed="0" arrived="0" entered="68" left="72" laneChangedFrom="0" laneChangedTo="0"/>
        </edge>
        <edge id="1si">
            <lane id="1si_0" sampledSeconds="1469.86" traveltime="55.87" overlapTraveltime="56.50" density="20.66" laneDensity="20.66" occupancy="10.23" waitingTime="779.00" timeLoss="1014.14" speed="4.29" speedRelative="0.31" departed="0" arrived="0" entered="26" left="26" laneChangedFrom="0" laneChangedTo="0"/>
            <lane id="1si_1" sampledSeconds="552.40" traveltime="26.73" overlapTraveltime="27.29" density="7.76" laneDensity="7.76" occupancy="3.81" waitingTime="165.00" timeLoss="197.95" speed="8.87" speedRelative="0.64" departed="0" arrived="0" entered="18" left="22" laneChangedFrom="0" laneChangedTo="0"/>
            <lane id="1si_2" sampledSeconds="8031.05" traveltime="462.12" overlapTraveltime="468.31" density="112.88" laneDensity="112.88" occupancy="56.09" waitingTime="5344.00" timeLoss="7731.14" speed="0.52" speedRelative="0.04" departed="0" arrived="0" entered="25" left="17" laneChangedFrom="0" laneChangedTo="0"/>
        </edge>
        <edge id="2fi">
            <lane id="2fi_0" sampledSeconds="2514.04" traveltime="24.56" overlapTraveltime="25.03" density="33.72" laneDensity="33.72" occupancy="16.61" waitingTime="0.00" timeLoss="232.91" speed="10.13" speedRelative="0.91" departed="31" arrived="27" entered="70" left="74" laneChangedFrom="0" laneChangedTo="0"/>
        </edge>
        <edge id="2o">
            <lane id="2o_0" sampledSeconds="3162.21" traveltime="47.02" overlapTraveltime="47.54" density="21.57" laneDensity="21.57" occupancy="10.67" waitingTime="0.00" timeLoss="206.56" speed="10.38" speedRelative="0.93" departed="0" arrived="0" entered="60" left="70" laneChangedFrom="0" laneChangedTo="0"/>
        </edge>
        <edge id="2si">
            <lane id="2si_0" sampledSeconds="1631.98" traveltime="55.58" overlapTraveltime="56.26" density="22.94" laneDensity="22.94" occupancy="11.36" waitingTime="895.00" timeLoss="1124.12" speed="4.30" speedRelative="0.31" departed="0" arrived="0" entered="31" left="27" laneChangedFrom="0" laneChangedTo="0"/>
            <lane id="2si_1" sampledSeconds="1079.88" traveltime="35.67" overlapTraveltime="36.28" density="15.18" laneDensity="15.18" occupancy="7.48" waitingTime="418.00" timeLoss="558.76" speed="6.67" speedRelative="0.48" departed="0" arrived="0" entered="29" left="30" laneChangedFrom="0" laneChangedTo="0"/>
            <lane id="2si_2" sampledSeconds="757.02" traveltime="46.88" overlapTraveltime="53.50" density="10.64" laneDensity="10.64" occupancy="5.20" waitingTime="335.00" timeLoss="509.40" speed="4.53" speedRelative="0.33" departed="0" arrived="0" entered="14" left="16" laneChangedFrom="0" laneChangedTo="0"/>
        </edge>
        <edge id="3fi">
            <lane id="3fi_0" sampledSeconds="2992.76" traveltime="24.85" overlapTraveltime="25.33" density="40.14" laneDensity="40.14" occupancy="19.79" waitingTime="0.00" timeLoss="306.06" speed="10.01" speedRelative="0.90" departed="50" arrived="57" entered="69" left="62" laneChangedFrom="0" laneChangedTo="0"/>
        </edge>
        <edge id="3o">
            <lane id="3o_0" sampledSeconds="3434.48" traveltime="47.01" overlapTraveltime="47.53" density="23.43" laneDensity="23.43" occupancy="11.59" waitingTime="0.00" timeLoss="223.70" speed="10.39" speedRelative="0.93" departed="0" arrived="0" entered="71" left="69" laneChangedFrom="0" laneChangedTo="0"/>
        </edge>
        <edge id="3si">
            <lane id="3si_0" sampledSeconds="1220.35" traveltime="50.09" overlapTraveltime="50.74" density="17.15" laneDensity="17.15" occupancy="8.49" waitingTime="663.00" timeLoss="799.16" speed="4.77" speedRelative="0.34" departed="0" arrived="0" entered="23" left="24" laneChangedFrom="0" laneChangedTo="0"/>
            <lane id="3si_1" sampledSeconds="1218.48" traveltime="51.00" overlapTraveltime="51.63" density="17.13" laneDensity="17.13" occupancy="8.48" waitingTime="673.00" timeLoss="805.32" speed="4.69" speedRelative="0.34" departed="0" arrived="0" entered="22" left="24" laneChangedFrom="0" laneChangedTo="0"/>
            <lane id="3si_2" sampledSeconds="796.17" traveltime="42.39" overlapTraveltime="47.28" density="11.19" laneDensity="11.19" occupancy="5.49" waitingTime="317.00" timeLoss="501.89" speed="5.12" speedRelative="0.37" departed="0" arrived="0" entered="17" left="13" laneChangedFrom="0" laneChangedTo="0"/>
        </edge>
        <edge id="4fi">
            <lane id="4fi_0" sampledSeconds="1733.92" traveltime="23.86" overlapTraveltime="24.31" density="23.26" laneDensity="23.26" occupancy="11.41" waitingTime="0.00" timeLoss="117.89" speed="10.43" speedRelative="0.94" departed="0" arrived="0" entered="68" left="74" laneChangedFrom="0" laneChangedTo="0"/>
        </edge>
        <edge id="4o">
            <lane id="4o_0" sampledSeconds="3343.71" traveltime="47.07" overlapTraveltime="47.55" density="22.81" laneDensity="22.81" occupancy="11.29" waitingTime="0.00" timeLoss="218.95" speed="10.38" speedRelative="0.93" departed="0" arrived="0" entered="71" left="68" laneChangedFrom="0" laneChangedTo="0"/>
        </edge>
        <edge id="4si">
            <lane id="4si_0" sampledSeconds="1881.21" traveltime="72.37" overlapTraveltime="73.05" density="26.44" laneDensity="26.44" occupancy="13.13" waitingTime="1194.00" timeLoss="1430.37" speed="3.31" speedRelative="0.24" departed="0" arrived="0" entered="26" left="25" laneChangedFrom="0" laneChangedTo="0"/>
            <lane id="4si_1" sampledSeconds="546.80" traveltime="19.21" overlapTraveltime="19.67" density="7.69" laneDensity="7.69" occupancy="3.75" waitingTime="30.00" timeLoss="60.10" speed="12.31" speedRelative="0.89" departed="0" arrived="0" entered="30" left="26" laneChangedFrom="0" laneChangedTo="0"/>
            <lane id="4si_2" sampledSeconds="1946.41" traveltime="108.46" overlapTraveltime="114.85" density="27.36" laneDensity="27.36" occupancy="13.57" waitingTime="1339.00" timeLoss="1650.27" speed="2.11" speedRelative="0.15" departed="0" arrived="0" entered="18" left="13" laneChangedFrom="0" laneChangedTo="0"/>
        </edge>
    </interval>
    <interval begin="900.00" end="1000.00" id="dump_300">
        <edge id="1fi">
            <lane id="1fi_0" sampledSeconds="2421.20" traveltime="106.67" overlapTraveltime="109.11" density="97.43" laneDensity="97.43" occupancy="47.71" waitingTime="552.00" timeLoss="1917.27" speed="2.32" speedRelative="0.21" departed="2" arrived="1" entered="21" left="22" laneChangedFrom="0" laneChangedTo="0"/>
        </edge>
        <edge id="1o">
            <lane id="1o_0" sampledSeconds="1829.57" traveltime="70.55" overlapTraveltime="71.92" density="37.44" laneDensity="37.44" occupancy="18.49" waitingTime="102.00" timeLoss="699.29" speed="6.86" speedRelative="0.62" departed="0" arrived="0" entered="28" left="21" laneChangedFrom="0" laneChangedTo="0"/>
        </edge>
        <edge id="1si">
            <lane id="1si_0" sampledSeconds="213.00" traveltime="26.71" overlapTraveltime="27.19" density="8.98" laneDensity="8.98" occupancy="4.42" waitingTime="58.00" timeLoss="76.19" speed="8.90" speedRelative="0.64" departed="0" arrived="0" entered="8" left="5" laneChangedFrom="0" laneChangedTo="0"/>
            <lane id="1si_1" sampledSeconds="291.50" traveltime="35.77" overlapTraveltime="36.44" density="12.29" laneDensity="12.29" occupancy="6.04" waitingTime="90.00" timeLoss="151.60" speed="6.65" speedRelative="0.48" departed="0" arrived="0" entered="8" left="8" laneChangedFrom="0" laneChangedTo="0"/>
            <lane id="1si_2" sampledSeconds="2944.54" traveltime="466.35" overlapTraveltime="473.18" density="124.16" laneDensity="124.16" occupancy="61.54" waitingTime="1773.00" timeLoss="2835.81" speed="0.51" speedRelative="0.04" departed="0" arrived="0" entered="5" left="5" laneChangedFrom="0" laneChangedTo="0"/>
        </edge>
        <edge id="2fi">
            <lane id="2fi_0" sampledSeconds="606.91" traveltime="24.67" overlapTraveltime="25.14" density="24.42" laneDensity="24.42" occupancy="12.03" waitingTime="0.00" timeLoss="59.24" speed="10.08" speedRelative="0.91" departed="10" arrived="1" entered="15" left="23" laneChangedFrom="0" laneChangedTo="0"/>
        </edge>
        <edge id="2o">
            <lane id="2o_0" sampledSeconds="937.12" traveltime="47.29" overlapTraveltime="47.79" density="19.18" laneDensity="19.18" occupancy="9.48" waitingTime="0.00" timeLoss="65.74" speed="10.33" speedRelative="0.93" departed="0" arrived="0" entered="24" left="16" laneChangedFrom="0" laneChangedTo="0"/>
        </edge>
        <edge id="2si">
            <lane id="2si_0" sampledSeconds="432.86" traveltime="49.12" overlapTraveltime="49.95" density="18.25" laneDensity="18.25" occupancy="9.05" waitingTime="219.00" timeLoss="281.19" speed="4.85" speedRelative="0.35" departed="0" arrived="0" entered="8" left="6" laneChangedFrom="0" laneChangedTo="0"/>
            <lane id="2si_1" sampledSeconds="375.93" traveltime="37.00" overlapTraveltime="37.67" density="15.85" laneDensity="15.85" occupancy="7.82" waitingTime="153.00" timeLoss="201.36" speed="6.43" speedRelative="0.46" departed="0" arrived="0" entered="11" left="9" laneChangedFrom="0" laneChangedTo="0"/>
            <lane id="2si_2" sampledSeconds="203.79" traveltime="43.07" overlapTraveltime="50.95" density="8.59" laneDensity="8.59" occupancy="4.20" waitingTime="91.00" timeLoss="133.84" speed="4.75" speedRelative="0.34" departed="0" arrived="0" entered="4" left="4" laneChangedFrom="0" laneChangedTo="0"/>
        </edge>
        <edge id="3fi">
            <lane id="3fi_0" sampledSeconds="957.97" traveltime="25.12" overlapTraveltime="25.59" density="38.55" laneDensity="38.55" occupancy="19.01" waitingTime="1.00" timeLoss="107.33" speed="9.91" speedRelative="0.89" departed="20" arrived="15" entered="18" left="23" laneChangedFrom="0" laneChangedTo="0"/>
        </edge>
        <edge id="3o">
            <lane id="3o_0" sampledSeconds="724.16" traveltime="47.22" overlapTraveltime="47.78" density="14.82" laneDensity="14.82" occupancy="7.31" waitingTime="0.00" timeLoss="50.78" speed="10.33" speedRelative="0.93" departed="0" arrived="0" entered="18" left="18" laneChangedFrom="0" laneChangedTo="0"/>
        </edge>
        <edge id="3si">
            <lane id="3si_0" sampledSeconds="391.25" traveltime="46.54" overlapTraveltime="47.21" density="16.50" laneDensity="16.50" occupancy="8.13" waitingTime="183.00" timeLoss="246.01" speed="5.13" speedRelative="0.37" departed="0" arrived="0" entered="9" left="11" laneChangedFrom="0" laneChangedTo="0"/>
            <lane id="3si_1" sampledSeconds="347.91" traveltime="38.97" overlapTraveltime="39.75" density="14.67" laneDensity="14.67" occupancy="7.21" waitingTime="133.00" timeLoss="194.68" speed="6.09" speedRelative="0.44" departed="0" arrived="0" entered="10" left="11" laneChangedFrom="0" laneChangedTo="0"/>
            <lane id="3si_2" sampledSeconds="328.87" traveltime="69.08" overlapTraveltime="76.80" density="13.87" laneDensity="13.87" occupancy="6.81" waitingTime="183.00" timeLoss="253.85" speed="3.15" speedRelative="0.23" departed="0" arrived="0" entered="4" left="7" laneChangedFrom="0" laneChangedTo="0"/>
        </edge>
        <edge id="4fi">
            <lane id="4fi_0" sampledSeconds="512.25" traveltime="23.82" overlapTraveltime="24.29" density="20.61" laneDensity="20.61" occupancy="10.10" waitingTime="0.00" timeLoss="34.01" speed="10.44" speedRelative="0.94" departed="0" arrived="0" entered="22" left="21" laneChangedFrom="0" laneChangedTo="0"/>
        </edge>
        <edge id="4o">
            <lane id="4o_0" sampledSeconds="1012.59" traveltime="47.11" overlapTraveltime="47.59" density="20.72" laneDensity="20.72" occupancy="10.25" waitingTime="0.00" timeLoss="67.24" speed="10.37" speedRelative="0.93" departed="0" arrived="0" entered="21" left="23" laneChangedFrom="0" laneChangedTo="0"/>
        </edge>
        <edge id="4si">
            <lane id="4si_0" sampledSeconds="601.52" traveltime="65.62" overlapTraveltime="65.94" density="25.36" laneDensity="25.36" occupancy="12.55" waitingTime="332.00" timeLoss="441.48" speed="3.67" speedRelative="0.26" departed="0" arrived="0" entered="8" left="14" laneChangedFrom="0" laneChangedTo="0"/>
            <lane id="4si_1" sampledSeconds="230.71" traveltime="24.16" overlapTraveltime="24.68" density="9.73" laneDensity="9.73" occupancy="4.78" waitingTime="55.00" timeLoss="67.06" speed="9.81" speedRelative="0.71" departed="0" arrived="0" entered="8" left="10" laneChangedFrom="0" laneChangedTo="0"/>
            <lane id="4si_2" sampledSeconds="724.81" traveltime="131.13" overlapTraveltime="138.00" density="30.56" laneDensity="30.56" occupancy="15.15" waitingTime="481.00" timeLoss="632.90" speed="1.75" speedRelative="0.13" departed="0" arrived="0" entered="5" left="7" laneChangedFrom="0" laneChangedTo="0"/>
        </edge>
    </interval>
</meandata>
