<?xml version="1.0" encoding="UTF-8"?>

<!-- generated on 2025-12-05T11:32:21.656831+01:00 by Eclipse SUMO sumo v1_25_0+0234-9128c7df7d2
This data file and the accompanying materials
are made available under the terms of the Eclipse Public License v2.0
which accompanies this distribution, and is available at
http://www.eclipse.org/legal/epl-v20.html
This file may also be made available under the following Secondary
Licenses when the conditions for such availability set forth in the Eclipse
Public License 2.0 are satisfied: GNU General Public License, version 2
or later which is available at
https://www.gnu.org/licenses/old-licenses/gpl-2.0-standalone.html
SPDX-License-Identifier: EPL-2.0 OR GPL-2.0-or-later
<sumoConfiguration xmlns:xsi="http://www.w3.org/2001/XMLSchema-instance" xsi:noNamespaceSchemaLocation="http://sumo.dlr.de/xsd/sumoConfiguration.xsd">

    <input>
        <net-file value="net.net.xml"/>
        <route-files value="input_routes.rou.xml"/>
    </input>

    <output>
        <write-license value="true"/>
        <fcd-output value="fcd.xml"/>
    </output>

    <time>
        <step-length value="0.1"/>
    </time>

    <processing>
        <lateral-resolution value="0.3"/>
        <collision.action value="warn"/>
        <default.speeddev value="0"/>
    </processing>

    <report>
        <xml-validation value="never"/>
        <no-step-log value="true"/>
    </report>

</sumoConfiguration>
-->

<fcd-export xmlns:xsi="http://www.w3.org/2001/XMLSchema-instance" xsi:noNamespaceSchemaLocation="http://sumo.dlr.de/xsd/fcd_file.xsd">
    <timestep time="0.00">
        <vehicle id="v_0" x="-94.98" y="-1.60" angle="90.00" type="car" speed="0.00" pos="5.10" lane="E1_0" slope="0.00"/>
    </timestep>
    <timestep time="0.10">
        <vehicle id="v_0" x="-94.95" y="-1.60" angle="90.00" type="car" speed="0.26" pos="5.13" lane="E1_0" slope="0.00"/>
    </timestep>
    <timestep time="0.20">
        <vehicle id="v_0" x="-94.90" y="-1.60" angle="90.00" type="car" speed="0.52" pos="5.18" lane="E1_0" slope="0.00"/>
    </timestep>
    <timestep time="0.30">
        <vehicle id="v_0" x="-94.82" y="-1.60" angle="90.00" type="car" speed="0.78" pos="5.26" lane="E1_0" slope="0.00"/>
    </timestep>
    <timestep time="0.40">
        <vehicle id="v_0" x="-94.72" y="-1.60" angle="90.00" type="car" speed="1.04" pos="5.36" lane="E1_0" slope="0.00"/>
    </timestep>
    <timestep time="0.50">
        <vehicle id="v_0" x="-94.59" y="-1.60" angle="90.00" type="car" speed="1.30" pos="5.49" lane="E1_0" slope="0.00"/>
    </timestep>
    <timestep time="0.60">
        <vehicle id="v_0" x="-94.44" y="-1.60" angle="90.00" type="car" speed="1.56" pos="5.65" lane="E1_0" slope="0.00"/>
    </timestep>
    <timestep time="0.70">
        <vehicle id="v_0" x="-94.26" y="-1.60" angle="90.00" type="car" speed="1.82" pos="5.83" lane="E1_0" slope="0.00"/>
    </timestep>
    <timestep time="0.80">
        <vehicle id="v_0" x="-94.05" y="-1.60" angle="90.00" type="car" speed="2.08" pos="6.04" lane="E1_0" slope="0.00"/>
    </timestep>
    <timestep time="0.90">
        <vehicle id="v_0" x="-93.82" y="-1.60" angle="90.00" type="car" speed="2.34" pos="6.27" lane="E1_0" slope="0.00"/>
    </timestep>
    <timestep time="1.00">
        <vehicle id="b_1" x="298.33" y="1.60" angle="270.00" type="bike_bicycle" speed="0.00" pos="1.70" lane="-E4_0" slope="0.00"/>
        <vehicle id="v_0" x="-93.57" y="-1.60" angle="90.00" type="car" speed="2.60" pos="6.53" lane="E1_0" slope="0.00"/>
    </timestep>
    <timestep time="1.10">
        <vehicle id="b_1" x="298.31" y="1.59" angle="269.64" type="bike_bicycle" speed="0.12" pos="1.71" lane="-E4_0" slope="0.00"/>
        <vehicle id="v_0" x="-93.29" y="-1.60" angle="90.00" type="car" speed="2.86" pos="6.82" lane="E1_0" slope="0.00"/>
    </timestep>
    <timestep time="1.20">
        <vehicle id="b_1" x="298.29" y="1.57" angle="268.93" type="bike_bicycle" speed="0.24" pos="1.74" lane="-E4_0" slope="0.00"/>
        <vehicle id="v_0" x="-92.98" y="-1.60" angle="90.00" type="car" speed="3.12" pos="7.13" lane="E1_0" slope="0.00"/>
    </timestep>
    <timestep time="1.30">
        <vehicle id="b_0" x="-98.33" y="-1.60" angle="90.00" type="bike_bicycle" speed="0.00" pos="1.70" lane="E1_0" slope="0.00"/>
        <vehicle id="b_1" x="298.25" y="1.54" angle="267.88" type="bike_bicycle" speed="0.36" pos="1.77" lane="-E4_0" slope="0.00"/>
        <vehicle id="v_0" x="-92.65" y="-1.60" angle="90.00" type="car" speed="3.38" pos="7.47" lane="E1_0" slope="0.00"/>
    </timestep>
    <timestep time="1.40">
        <vehicle id="b_0" x="-98.32" y="-1.59" angle="89.64" type="bike_bicycle" speed="0.07" pos="1.71" lane="E1_0" slope="0.00"/>
        <vehicle id="b_1" x="298.21" y="1.50" angle="266.51" type="bike_bicycle" speed="0.48" pos="1.82" lane="-E4_0" slope="0.00"/>
        <vehicle id="v_0" x="-92.29" y="-1.60" angle="90.00" type="car" speed="3.64" pos="7.83" lane="E1_0" slope="0.00"/>
    </timestep>
    <timestep time="1.50">
        <vehicle id="b_0" x="-98.30" y="-1.57" angle="88.93" type="bike_bicycle" speed="0.16" pos="1.72" lane="E1_0" slope="0.00"/>
        <vehicle id="b_1" x="298.15" y="1.45" angle="264.86" type="bike_bicycle" speed="0.60" pos="1.88" lane="-E4_0" slope="0.00"/>
        <vehicle id="v_0" x="-91.90" y="-1.60" angle="90.00" type="car" speed="3.90" pos="8.22" lane="E1_0" slope="0.00"/>
    </timestep>
    <timestep time="1.60">
        <vehicle id="b_0" x="-98.28" y="-1.54" angle="87.87" type="bike_bicycle" speed="0.27" pos="1.75" lane="E1_0" slope="0.00"/>
        <vehicle id="b_1" x="298.08" y="1.39" angle="262.95" type="bike_bicycle" speed="0.72" pos="1.95" lane="-E4_0" slope="0.00"/>
        <vehicle id="v_0" x="-91.49" y="-1.60" angle="90.00" type="car" speed="4.16" pos="8.64" lane="E1_0" slope="0.00"/>
    </timestep>
    <timestep time="1.70">
        <vehicle id="b_0" x="-98.24" y="-1.50" angle="86.49" type="bike_bicycle" speed="0.38" pos="1.79" lane="E1_0" slope="0.00"/>
        <vehicle id="b_1" x="297.99" y="1.32" angle="260.83" type="bike_bicycle" speed="0.84" pos="2.04" lane="-E4_0" slope="0.00"/>
        <vehicle id="v_0" x="-91.06" y="-1.60" angle="90.00" type="car" speed="4.42" pos="9.08" lane="E1_0" slope="0.00"/>
    </timestep>
    <timestep time="1.80">
        <vehicle id="b_0" x="-98.19" y="-1.45" angle="84.81" type="bike_bicycle" speed="0.50" pos="1.84" lane="E1_0" slope="0.00"/>
        <vehicle id="b_1" x="297.90" y="1.24" angle="258.55" type="bike_bicycle" speed="0.96" pos="2.13" lane="-E4_0" slope="0.00"/>
        <vehicle id="v_0" x="-90.60" y="-1.60" angle="90.00" type="car" speed="4.68" pos="9.55" lane="E1_0" slope="0.00"/>
    </timestep>
    <timestep time="1.90">
        <vehicle id="b_0" x="-98.13" y="-1.39" angle="82.87" type="bike_bicycle" speed="0.61" pos="1.90" lane="E1_0" slope="0.00"/>
        <vehicle id="b_1" x="297.79" y="1.15" angle="256.16" type="bike_bicycle" speed="1.08" pos="2.24" lane="-E4_0" slope="0.00"/>
        <vehicle id="v_0" x="-90.11" y="-1.60" angle="90.00" type="car" speed="4.94" pos="10.04" lane="E1_0" slope="0.00"/>
    </timestep>
    <timestep time="2.00">
        <vehicle id="b_0" x="-98.06" y="-1.32" angle="80.71" type="bike_bicycle" speed="0.73" pos="1.97" lane="E1_0" slope="0.00"/>
        <vehicle id="b_1" x="297.68" y="1.05" angle="253.71" type="bike_bicycle" speed="1.20" pos="2.36" lane="-E4_0" slope="0.00"/>
        <vehicle id="v_0" x="-89.62" y="-1.60" angle="90.00" type="car" speed="5.00" pos="10.54" lane="E1_0" slope="0.00"/>
    </timestep>
    <timestep time="2.10">
        <vehicle id="b_0" x="-97.97" y="-1.24" angle="78.37" type="bike_bicycle" speed="0.85" pos="2.06" lane="E1_0" slope="0.00"/>
        <vehicle id="b_1" x="297.55" y="0.95" angle="251.59" type="bike_bicycle" speed="1.32" pos="2.49" lane="-E4_0" slope="0.00"/>
        <vehicle id="v_0" x="-89.13" y="-1.60" angle="90.00" type="car" speed="5.00" pos="11.04" lane="E1_0" slope="0.00"/>
    </timestep>
    <timestep time="2.20">
        <vehicle id="b_0" x="-97.88" y="-1.15" angle="75.91" type="bike_bicycle" speed="0.97" pos="2.15" lane="E1_0" slope="0.00"/>
        <vehicle id="b_1" x="297.40" y="0.85" angle="249.82" type="bike_bicycle" speed="1.44" pos="2.64" lane="-E4_0" slope="0.00"/>
        <vehicle id="v_0" x="-88.63" y="-1.60" angle="90.00" type="car" speed="5.00" pos="11.54" lane="E1_0" slope="0.00"/>
    </timestep>
    <timestep time="2.30">
        <vehicle id="b_0" x="-97.77" y="-1.05" angle="73.38" type="bike_bicycle" speed="1.08" pos="2.26" lane="E1_0" slope="0.00"/>
        <vehicle id="b_1" x="297.25" y="0.76" angle="248.72" type="bike_bicycle" speed="1.56" pos="2.79" lane="-E4_0" slope="0.00"/>
        <vehicle id="v_0" x="-88.14" y="-1.60" angle="90.00" type="car" speed="5.00" pos="12.04" lane="E1_0" slope="0.00"/>
    </timestep>
    <timestep time="2.40">
        <vehicle id="b_0" x="-97.65" y="-0.95" angle="71.18" type="bike_bicycle" speed="1.20" pos="2.38" lane="E1_0" slope="0.00"/>
        <vehicle id="b_1" x="297.08" y="0.68" angle="248.24" type="bike_bicycle" speed="1.68" pos="2.96" lane="-E4_0" slope="0.00"/>
        <vehicle id="v_0" x="-87.65" y="-1.60" angle="90.00" type="car" speed="5.00" pos="12.54" lane="E1_0" slope="0.00"/>
    </timestep>
    <timestep time="2.50">
        <vehicle id="b_0" x="-97.52" y="-0.85" angle="69.32" type="bike_bicycle" speed="1.32" pos="2.51" lane="E1_0" slope="0.00"/>
        <vehicle id="b_1" x="296.91" y="0.61" angle="248.30" type="bike_bicycle" speed="1.80" pos="3.14" lane="-E4_0" slope="0.00"/>
        <vehicle id="v_0" x="-87.16" y="-1.60" angle="90.00" type="car" speed="5.00" pos="13.04" lane="E1_0" slope="0.00"/>
    </timestep>
    <timestep time="2.60">
        <vehicle id="b_0" x="-97.38" y="-0.76" angle="68.12" type="bike_bicycle" speed="1.44" pos="2.66" lane="E1_0" slope="0.00"/>
        <vehicle id="b_1" x="296.72" y="0.54" angle="248.51" type="bike_bicycle" speed="1.92" pos="3.33" lane="-E4_0" slope="0.00"/>
        <vehicle id="v_0" x="-86.66" y="-1.60" angle="90.00" type="car" speed="5.00" pos="13.54" lane="E1_0" slope="0.00"/>
    </timestep>
    <timestep time="2.70">
        <vehicle id="b_0" x="-97.23" y="-0.68" angle="67.54" type="bike_bicycle" speed="1.56" pos="2.81" lane="E1_0" slope="0.00"/>
        <vehicle id="b_1" x="296.52" y="0.48" angle="249.18" type="bike_bicycle" speed="2.04" pos="3.53" lane="-E4_0" slope="0.00"/>
        <vehicle id="v_0" x="-86.17" y="-1.60" angle="90.00" type="car" speed="5.00" pos="14.04" lane="E1_0" slope="0.00"/>
    </timestep>
    <timestep time="2.80">
        <vehicle id="b_0" x="-97.06" y="-0.61" angle="67.52" type="bike_bicycle" speed="1.68" pos="2.98" lane="E1_0" slope="0.00"/>
        <vehicle id="b_1" x="296.31" y="0.43" angle="250.25" type="bike_bicycle" speed="2.16" pos="3.75" lane="-E4_0" slope="0.00"/>
        <vehicle id="v_0" x="-85.68" y="-1.60" angle="90.00" type="car" speed="5.00" pos="14.54" lane="E1_0" slope="0.00"/>
    </timestep>
    <timestep time="2.90">
        <vehicle id="b_0" x="-96.89" y="-0.54" angle="67.66" type="bike_bicycle" speed="1.80" pos="3.16" lane="E1_0" slope="0.00"/>
        <vehicle id="b_1" x="296.08" y="0.39" angle="251.66" type="bike_bicycle" speed="2.27" pos="3.98" lane="-E4_0" slope="0.00"/>
        <vehicle id="v_0" x="-85.19" y="-1.60" angle="90.00" type="car" speed="5.00" pos="15.04" lane="E1_0" slope="0.00"/>
    </timestep>
    <timestep time="3.00">
        <vehicle id="b_0" x="-96.70" y="-0.48" angle="68.28" type="bike_bicycle" speed="1.91" pos="3.35" lane="E1_0" slope="0.00"/>
        <vehicle id="b_1" x="295.85" y="0.36" angle="253.33" type="bike_bicycle" speed="2.39" pos="4.22" lane="-E4_0" slope="0.00"/>
        <vehicle id="v_0" x="-84.69" y="-1.60" angle="90.00" type="car" speed="5.00" pos="15.54" lane="E1_0" slope="0.00"/>
    </timestep>
    <timestep time="3.10">
        <vehicle id="b_0" x="-96.50" y="-0.43" angle="69.31" type="bike_bicycle" speed="2.03" pos="3.56" lane="E1_0" slope="0.00"/>
        <vehicle id="b_1" x="295.60" y="0.34" angle="255.23" type="bike_bicycle" speed="2.51" pos="4.47" lane="-E4_0" slope="0.00"/>
        <vehicle id="v_0" x="-84.20" y="-1.60" angle="90.00" type="car" speed="5.00" pos="16.04" lane="E1_0" slope="0.00"/>
    </timestep>
    <timestep time="3.20">
        <vehicle id="b_0" x="-96.29" y="-0.39" angle="70.69" type="bike_bicycle" speed="2.15" pos="3.77" lane="E1_0" slope="0.00"/>
        <vehicle id="b_1" x="295.34" y="0.33" angle="257.28" type="bike_bicycle" speed="2.63" pos="4.73" lane="-E4_0" slope="0.00"/>
        <vehicle id="v_0" x="-83.71" y="-1.60" angle="90.00" type="car" speed="5.00" pos="16.54" lane="E1_0" slope="0.00"/>
    </timestep>
    <timestep time="3.30">
        <vehicle id="b_0" x="-96.06" y="-0.36" angle="72.35" type="bike_bicycle" speed="2.26" pos="4.00" lane="E1_0" slope="0.00"/>
        <vehicle id="b_1" x="295.07" y="0.33" angle="259.45" type="bike_bicycle" speed="2.75" pos="5.01" lane="-E4_0" slope="0.00"/>
        <vehicle id="v_0" x="-83.22" y="-1.60" angle="90.00" type="car" speed="5.00" pos="17.04" lane="E1_0" slope="0.00"/>
    </timestep>
    <timestep time="3.40">
        <vehicle id="b_0" x="-95.83" y="-0.34" angle="74.26" type="bike_bicycle" speed="2.38" pos="4.24" lane="E1_0" slope="0.00"/>
        <vehicle id="b_1" x="294.79" y="0.33" angle="261.17" type="bike_bicycle" speed="2.86" pos="5.29" lane="-E4_0" slope="0.00"/>
        <vehicle id="v_0" x="-82.72" y="-1.60" angle="90.00" type="car" speed="5.00" pos="17.54" lane="E1_0" slope="0.00"/>
    </timestep>
    <timestep time="3.50">
        <vehicle id="b_0" x="-95.58" y="-0.33" angle="76.34" type="bike_bicycle" speed="2.50" pos="4.49" lane="E1_0" slope="0.00"/>
        <vehicle id="b_1" x="294.49" y="0.33" angle="262.81" type="bike_bicycle" speed="2.98" pos="5.59" lane="-E4_0" slope="0.00"/>
        <vehicle id="v_0" x="-82.23" y="-1.60" angle="90.00" type="car" speed="5.00" pos="18.04" lane="E1_0" slope="0.00"/>
    </timestep>
    <timestep time="3.60">
        <vehicle id="b_0" x="-95.32" y="-0.33" angle="78.55" type="bike_bicycle" speed="2.61" pos="4.75" lane="E1_0" slope="0.00"/>
        <vehicle id="b_1" x="294.19" y="0.33" angle="264.19" type="bike_bicycle" speed="3.10" pos="5.90" lane="-E4_0" slope="0.00"/>
        <vehicle id="v_0" x="-81.74" y="-1.60" angle="90.00" type="car" speed="5.00" pos="18.54" lane="E1_0" slope="0.00"/>
    </timestep>
    <timestep time="3.70">
        <vehicle id="b_0" x="-95.06" y="-0.33" angle="80.33" type="bike_bicycle" speed="2.73" pos="5.02" lane="E1_0" slope="0.00"/>
        <vehicle id="b_1" x="293.87" y="0.33" angle="265.36" type="bike_bicycle" speed="3.21" pos="6.22" lane="-E4_0" slope="0.00"/>
        <vehicle id="v_0" x="-81.25" y="-1.60" angle="90.00" type="car" speed="5.00" pos="19.04" lane="E1_0" slope="0.00"/>
    </timestep>
    <timestep time="3.80">
        <vehicle id="b_0" x="-94.78" y="-0.33" angle="82.04" type="bike_bicycle" speed="2.84" pos="5.30" lane="E1_0" slope="0.00"/>
        <vehicle id="b_1" x="293.54" y="0.33" angle="266.32" type="bike_bicycle" speed="3.32" pos="6.55" lane="-E4_0" slope="0.00"/>
        <vehicle id="v_0" x="-80.75" y="-1.60" angle="90.00" type="car" speed="5.00" pos="19.54" lane="E1_0" slope="0.00"/>
    </timestep>
    <timestep time="3.90">
        <vehicle id="b_0" x="-94.49" y="-0.33" angle="83.50" type="bike_bicycle" speed="2.95" pos="5.60" lane="E1_0" slope="0.00"/>
        <vehicle id="b_1" x="293.21" y="0.33" angle="267.11" type="bike_bicycle" speed="3.44" pos="6.90" lane="-E4_0" slope="0.00"/>
        <vehicle id="v_0" x="-80.26" y="-1.60" angle="90.00" type="car" speed="5.00" pos="20.04" lane="E1_0" slope="0.00"/>
    </timestep>
    <timestep time="4.00">
        <vehicle id="b_0" x="-94.18" y="-0.33" angle="84.74" type="bike_bicycle" speed="3.06" pos="5.90" lane="E1_0" slope="0.00"/>
        <vehicle id="b_1" x="292.86" y="0.33" angle="267.75" type="bike_bicycle" speed="3.55" pos="7.25" lane="-E4_0" slope="0.00"/>
        <vehicle id="v_0" x="-79.77" y="-1.60" angle="90.00" type="car" speed="5.00" pos="20.54" lane="E1_0" slope="0.00"/>
    </timestep>
    <timestep time="4.10">
        <vehicle id="b_0" x="-93.87" y="-0.33" angle="85.79" type="bike_bicycle" speed="3.17" pos="6.22" lane="E1_0" slope="0.00"/>
        <vehicle id="b_1" x="292.50" y="0.33" angle="268.27" type="bike_bicycle" speed="3.66" pos="7.62" lane="-E4_0" slope="0.00"/>
        <vehicle id="v_0" x="-79.28" y="-1.60" angle="90.00" type="car" speed="5.00" pos="21.04" lane="E1_0" slope="0.00"/>
    </timestep>
    <timestep time="4.20">
        <vehicle id="b_0" x="-93.55" y="-0.33" angle="86.65" type="bike_bicycle" speed="3.28" pos="6.55" lane="E1_0" slope="0.00"/>
        <vehicle id="b_1" x="292.12" y="0.33" angle="268.67" type="bike_bicycle" speed="3.77" pos="8.00" lane="-E4_0" slope="0.00"/>
        <vehicle id="v_0" x="-78.78" y="-1.60" angle="90.00" type="car" speed="5.00" pos="21.54" lane="E1_0" slope="0.00"/>
    </timestep>
    <timestep time="4.30">
        <vehicle id="b_0" x="-93.21" y="-0.33" angle="87.36" type="bike_bicycle" speed="3.39" pos="6.89" lane="E1_0" slope="0.00"/>
        <vehicle id="b_1" x="291.74" y="0.33" angle="269.00" type="bike_bicycle" speed="3.88" pos="8.38" lane="-E4_0" slope="0.00"/>
        <vehicle id="v_0" x="-78.29" y="-1.60" angle="90.00" type="car" speed="5.00" pos="22.04" lane="E1_0" slope="0.00"/>
    </timestep>
    <timestep time="4.40">
        <vehicle id="b_0" x="-92.87" y="-0.33" angle="87.94" type="bike_bicycle" speed="3.50" pos="7.24" lane="E1_0" slope="0.00"/>
        <vehicle id="b_1" x="291.35" y="0.33" angle="269.25" type="bike_bicycle" speed="3.99" pos="8.78" lane="-E4_0" slope="0.00"/>
        <vehicle id="v_0" x="-77.80" y="-1.60" angle="90.00" type="car" speed="5.00" pos="22.54" lane="E1_0" slope="0.00"/>
    </timestep>
    <timestep time="4.50">
        <vehicle id="b_0" x="-92.51" y="-0.33" angle="88.40" type="bike_bicycle" speed="3.60" pos="7.60" lane="E1_0" slope="0.00"/>
        <vehicle id="b_1" x="290.95" y="0.33" angle="269.44" type="bike_bicycle" speed="4.10" pos="9.19" lane="-E4_0" slope="0.00"/>
        <vehicle id="v_0" x="-77.31" y="-1.60" angle="90.00" type="car" speed="5.00" pos="23.04" lane="E1_0" slope="0.00"/>
    </timestep>
    <timestep time="4.60">
        <vehicle id="b_0" x="-92.15" y="-0.33" angle="88.77" type="bike_bicycle" speed="3.71" pos="7.97" lane="E1_0" slope="0.00"/>
        <vehicle id="b_1" x="290.53" y="0.33" angle="269.59" type="bike_bicycle" speed="4.20" pos="9.61" lane="-E4_0" slope="0.00"/>
        <vehicle id="v_0" x="-76.81" y="-1.60" angle="90.00" type="car" speed="5.00" pos="23.54" lane="E1_0" slope="0.00"/>
    </timestep>
    <timestep time="4.70">
        <vehicle id="b_0" x="-91.77" y="-0.33" angle="89.06" type="bike_bicycle" speed="3.81" pos="8.35" lane="E1_0" slope="0.00"/>
        <vehicle id="b_1" x="290.11" y="0.33" angle="269.70" type="bike_bicycle" speed="4.30" pos="10.04" lane="-E4_0" slope="0.00"/>
        <vehicle id="v_0" x="-76.32" y="-1.60" angle="90.00" type="car" speed="5.00" pos="24.04" lane="E1_0" slope="0.00"/>
    </timestep>
    <timestep time="4.80">
        <vehicle id="b_0" x="-91.39" y="-0.33" angle="89.29" type="bike_bicycle" speed="3.91" pos="8.74" lane="E1_0" slope="0.00"/>
        <vehicle id="b_1" x="289.67" y="0.33" angle="269.78" type="bike_bicycle" speed="4.41" pos="10.48" lane="-E4_0" slope="0.00"/>
        <vehicle id="v_0" x="-75.83" y="-1.60" angle="90.00" type="car" speed="5.00" pos="24.54" lane="E1_0" slope="0.00"/>
    </timestep>
    <timestep time="4.90">
        <vehicle id="b_0" x="-91.00" y="-0.33" angle="89.47" type="bike_bicycle" speed="4.00" pos="9.14" lane="E1_0" slope="0.00"/>
        <vehicle id="b_1" x="289.23" y="0.33" angle="269.84" type="bike_bicycle" speed="4.50" pos="10.93" lane="-E4_0" slope="0.00"/>
        <vehicle id="v_0" x="-75.34" y="-1.60" angle="90.00" type="car" speed="5.00" pos="25.04" lane="E1_0" slope="0.00"/>
    </timestep>
    <timestep time="5.00">
        <vehicle id="b_0" x="-90.59" y="-0.33" angle="89.61" type="bike_bicycle" speed="4.10" pos="9.55" lane="E1_0" slope="0.00"/>
        <vehicle id="b_1" x="288.78" y="0.33" angle="269.89" type="bike_bicycle" speed="4.60" pos="11.39" lane="-E4_0" slope="0.00"/>
        <vehicle id="v_0" x="-74.84" y="-1.60" angle="90.00" type="car" speed="5.00" pos="25.54" lane="E1_0" slope="0.00"/>
    </timestep>
    <timestep time="5.10">
        <vehicle id="b_0" x="-90.18" y="-0.33" angle="89.71" type="bike_bicycle" speed="4.19" pos="9.97" lane="E1_0" slope="0.00"/>
        <vehicle id="b_1" x="288.31" y="0.33" angle="269.92" type="bike_bicycle" speed="4.70" pos="11.86" lane="-E4_0" slope="0.00"/>
        <vehicle id="v_0" x="-74.35" y="-1.60" angle="90.00" type="car" speed="5.00" pos="26.04" lane="E1_0" slope="0.00"/>
    </timestep>
    <timestep time="5.20">
        <vehicle id="b_0" x="-89.76" y="-0.33" angle="89.79" type="bike_bicycle" speed="4.28" pos="10.40" lane="E1_0" slope="0.00"/>
        <vehicle id="b_1" x="287.84" y="0.33" angle="269.94" type="bike_bicycle" speed="4.79" pos="12.34" lane="-E4_0" slope="0.00"/>
        <vehicle id="v_0" x="-73.86" y="-1.60" angle="90.00" type="car" speed="5.00" pos="26.54" lane="E1_0" slope="0.00"/>
    </timestep>
    <timestep time="5.30">
        <vehicle id="b_0" x="-89.33" y="-0.33" angle="89.84" type="bike_bicycle" speed="4.37" pos="10.84" lane="E1_0" slope="0.00"/>
        <vehicle id="b_1" x="287.36" y="0.33" angle="269.96" type="bike_bicycle" speed="4.88" pos="12.83" lane="-E4_0" slope="0.00"/>
        <vehicle id="v_0" x="-73.37" y="-1.60" angle="90.00" type="car" speed="5.00" pos="27.04" lane="E1_0" slope="0.00"/>
    </timestep>
    <timestep time="5.40">
        <vehicle id="b_0" x="-88.89" y="-0.33" angle="89.89" type="bike_bicycle" speed="4.46" pos="11.28" lane="E1_0" slope="0.00"/>
        <vehicle id="b_1" x="286.87" y="0.33" angle="269.97" type="bike_bicycle" speed="4.97" pos="13.33" lane="-E4_0" slope="0.00"/>
        <vehicle id="v_0" x="-72.87" y="-1.60" angle="90.00" type="car" speed="5.00" pos="27.54" lane="E1_0" slope="0.00"/>
    </timestep>
    <timestep time="5.50">
        <vehicle id="b_0" x="-88.44" y="-0.33" angle="89.92" type="bike_bicycle" speed="4.54" pos="11.74" lane="E1_0" slope="0.00"/>
        <vehicle id="b_1" x="286.37" y="0.33" angle="269.98" type="bike_bicycle" speed="5.06" pos="13.83" lane="-E4_0" slope="0.00"/>
        <vehicle id="v_0" x="-72.38" y="-1.60" angle="90.00" type="car" speed="5.00" pos="28.04" lane="E1_0" slope="0.00"/>
    </timestep>
    <timestep time="5.60">
        <vehicle id="b_0" x="-87.99" y="-0.33" angle="89.94" type="bike_bicycle" speed="4.62" pos="12.20" lane="E1_0" slope="0.00"/>
        <vehicle id="b_1" x="285.87" y="0.33" angle="269.99" type="bike_bicycle" speed="5.15" pos="14.35" lane="-E4_0" slope="0.00"/>
        <vehicle id="v_0" x="-71.89" y="-1.60" angle="90.00" type="car" speed="5.00" pos="28.54" lane="E1_0" slope="0.00"/>
    </timestep>
    <timestep time="5.70">
        <vehicle id="b_0" x="-87.52" y="-0.33" angle="89.96" type="bike_bicycle" speed="4.69" pos="12.67" lane="E1_0" slope="0.00"/>
        <vehicle id="b_1" x="285.35" y="0.33" angle="269.99" type="bike_bicycle" speed="5.23" pos="14.87" lane="-E4_0" slope="0.00"/>
        <vehicle id="v_0" x="-71.40" y="-1.60" angle="90.00" type="car" speed="5.00" pos="29.04" lane="E1_0" slope="0.00"/>
    </timestep>
    <timestep time="5.80">
        <vehicle id="b_0" x="-87.05" y="-0.33" angle="89.97" type="bike_bicycle" speed="4.77" pos="13.14" lane="E1_0" slope="0.00"/>
        <vehicle id="b_1" x="284.83" y="0.33" angle="269.99" type="bike_bicycle" speed="5.31" pos="15.40" lane="-E4_0" slope="0.00"/>
        <vehicle id="v_0" x="-70.90" y="-1.60" angle="90.00" type="car" speed="5.00" pos="29.54" lane="E1_0" slope="0.00"/>
    </timestep>
    <timestep time="5.90">
        <vehicle id="b_0" x="-86.58" y="-0.33" angle="89.98" type="bike_bicycle" speed="4.84" pos="13.63" lane="E1_0" slope="0.00"/>
        <vehicle id="b_1" x="284.30" y="0.33" angle="270.00" type="bike_bicycle" speed="5.39" pos="15.94" lane="-E4_0" slope="0.00"/>
        <vehicle id="v_0" x="-70.41" y="-1.60" angle="90.00" type="car" speed="5.00" pos="30.04" lane="E1_0" slope="0.00"/>
    </timestep>
    <timestep time="6.00">
        <vehicle id="b_0" x="-86.09" y="-0.33" angle="89.99" type="bike_bicycle" speed="4.91" pos="14.12" lane="E1_0" slope="0.00"/>
        <vehicle id="b_1" x="283.76" y="0.33" angle="270.00" type="bike_bicycle" speed="5.46" pos="16.49" lane="-E4_0" slope="0.00"/>
        <vehicle id="v_0" x="-69.92" y="-1.60" angle="90.00" type="car" speed="5.00" pos="30.54" lane="E1_0" slope="0.00"/>
    </timestep>
    <timestep time="6.10">
        <vehicle id="b_0" x="-85.60" y="-0.33" angle="89.99" type="bike_bicycle" speed="4.97" pos="14.62" lane="E1_0" slope="0.00"/>
        <vehicle id="b_1" x="283.21" y="0.33" angle="270.00" type="bike_bicycle" speed="5.53" pos="17.04" lane="-E4_0" slope="0.00"/>
        <vehicle id="v_0" x="-69.43" y="-1.60" angle="90.00" type="car" speed="5.00" pos="31.04" lane="E1_0" slope="0.00"/>
    </timestep>
    <timestep time="6.20">
        <vehicle id="b_0" x="-85.11" y="-0.33" angle="89.99" type="bike_bicycle" speed="5.04" pos="15.12" lane="E1_0" slope="0.00"/>
        <vehicle id="b_1" x="282.66" y="0.33" angle="270.00" type="bike_bicycle" speed="5.60" pos="17.60" lane="-E4_0" slope="0.00"/>
        <vehicle id="v_0" x="-68.93" y="-1.60" angle="90.00" type="car" speed="5.00" pos="31.54" lane="E1_0" slope="0.00"/>
    </timestep>
    <timestep time="6.30">
        <vehicle id="b_0" x="-84.61" y="-0.33" angle="90.00" type="bike_bicycle" speed="5.10" pos="15.63" lane="E1_0" slope="0.00"/>
        <vehicle id="b_1" x="282.10" y="0.33" angle="270.00" type="bike_bicycle" speed="5.67" pos="18.17" lane="-E4_0" slope="0.00"/>
        <vehicle id="v_0" x="-68.44" y="-1.60" angle="90.00" type="car" speed="5.00" pos="32.04" lane="E1_0" slope="0.00"/>
    </timestep>
    <timestep time="6.40">
        <vehicle id="b_0" x="-84.10" y="-0.33" angle="90.00" type="bike_bicycle" speed="5.15" pos="16.14" lane="E1_0" slope="0.00"/>
        <vehicle id="b_1" x="281.54" y="0.33" angle="270.00" type="bike_bicycle" speed="5.74" pos="18.74" lane="-E4_0" slope="0.00"/>
        <vehicle id="v_0" x="-67.95" y="-1.60" angle="90.00" type="car" speed="5.00" pos="32.54" lane="E1_0" slope="0.00"/>
    </timestep>
    <timestep time="6.50">
        <vehicle id="b_0" x="-83.59" y="-0.33" angle="90.00" type="bike_bicycle" speed="5.20" pos="16.66" lane="E1_0" slope="0.00"/>
        <vehicle id="b_1" x="280.97" y="0.33" angle="270.00" type="bike_bicycle" speed="5.80" pos="19.32" lane="-E4_0" slope="0.00"/>
        <vehicle id="v_0" x="-67.46" y="-1.60" angle="90.00" type="car" speed="5.00" pos="33.04" lane="E1_0" slope="0.00"/>
    </timestep>
    <timestep time="6.60">
        <vehicle id="b_0" x="-83.07" y="-0.33" angle="90.00" type="bike_bicycle" speed="5.25" pos="17.19" lane="E1_0" slope="0.00"/>
        <vehicle id="b_1" x="280.39" y="0.33" angle="270.00" type="bike_bicycle" speed="5.86" pos="19.91" lane="-E4_0" slope="0.00"/>
        <vehicle id="v_0" x="-66.96" y="-1.60" angle="90.00" type="car" speed="5.00" pos="33.54" lane="E1_0" slope="0.00"/>
    </timestep>
    <timestep time="6.70">
        <vehicle id="b_0" x="-82.55" y="-0.33" angle="90.00" type="bike_bicycle" speed="5.30" pos="17.72" lane="E1_0" slope="0.00"/>
        <vehicle id="b_1" x="279.81" y="0.33" angle="270.00" type="bike_bicycle" speed="5.91" pos="20.50" lane="-E4_0" slope="0.00"/>
        <vehicle id="v_0" x="-66.47" y="-1.60" angle="90.00" type="car" speed="5.00" pos="34.04" lane="E1_0" slope="0.00"/>
    </timestep>
    <timestep time="6.80">
        <vehicle id="b_0" x="-82.02" y="-0.33" angle="90.00" type="bike_bicycle" speed="5.35" pos="18.25" lane="E1_0" slope="0.00"/>
        <vehicle id="b_1" x="279.22" y="0.33" angle="270.00" type="bike_bicycle" speed="5.97" pos="21.10" lane="-E4_0" slope="0.00"/>
        <vehicle id="v_0" x="-65.98" y="-1.60" angle="90.00" type="car" speed="5.00" pos="34.54" lane="E1_0" slope="0.00"/>
    </timestep>
    <timestep time="6.90">
        <vehicle id="b_0" x="-81.49" y="-0.33" angle="90.00" type="bike_bicycle" speed="5.39" pos="18.79" lane="E1_0" slope="0.00"/>
        <vehicle id="b_1" x="278.63" y="0.33" angle="270.00" type="bike_bicycle" speed="6.02" pos="21.70" lane="-E4_0" slope="0.00"/>
        <vehicle id="v_0" x="-65.49" y="-1.60" angle="90.00" type="car" speed="5.00" pos="35.04" lane="E1_0" slope="0.00"/>
    </timestep>
    <timestep time="7.00">
        <vehicle id="b_0" x="-80.95" y="-0.33" angle="90.00" type="bike_bicycle" speed="5.43" pos="19.34" lane="E1_0" slope="0.00"/>
        <vehicle id="b_1" x="278.03" y="0.33" angle="270.00" type="bike_bicycle" speed="6.07" pos="22.31" lane="-E4_0" slope="0.00"/>
        <vehicle id="v_0" x="-64.99" y="-1.60" angle="90.00" type="car" speed="5.00" pos="35.54" lane="E1_0" slope="0.00"/>
    </timestep>
    <timestep time="7.10">
        <vehicle id="b_0" x="-80.42" y="-0.33" angle="90.00" type="bike_bicycle" speed="5.46" pos="19.88" lane="E1_0" slope="0.00"/>
        <vehicle id="b_1" x="277.43" y="0.33" angle="270.00" type="bike_bicycle" speed="6.12" pos="22.92" lane="-E4_0" slope="0.00"/>
        <vehicle id="v_0" x="-64.50" y="-1.60" angle="90.00" type="car" speed="5.00" pos="36.04" lane="E1_0" slope="0.00"/>
    </timestep>
    <timestep time="7.20">
        <vehicle id="b_0" x="-79.87" y="-0.33" angle="90.00" type="bike_bicycle" speed="5.49" pos="20.43" lane="E1_0" slope="0.00"/>
        <vehicle id="b_1" x="276.82" y="0.33" angle="270.00" type="bike_bicycle" speed="6.16" pos="23.53" lane="-E4_0" slope="0.00"/>