<?xml version="1.0" encoding="UTF-8"?>

<!-- generated on Tue Mar 31 12:21:43 2020 by Eclipse SUMO Version v1_5_0+1025-83bc0d0af0
This data file and the accompanying materials
are made available under the terms of the Eclipse Public License v2.0
which accompanies this distribution, and is available at
http://www.eclipse.org/legal/epl-v20.html
SPDX-License-Identifier: EPL-2.0
<configuration xmlns:xsi="http://www.w3.org/2001/XMLSchema-instance" xsi:noNamespaceSchemaLocation="http://sumo.dlr.de/xsd/sumoConfiguration.xsd">

    <input>
        <net-file value="net.net.xml"/>
        <route-files value="input_routes.rou.xml"/>
        <additional-files value="input_additional.add.xml"/>
    </input>

    <output>
        <write-license value="true"/>
        <vehroute-output value="vehroutes.xml"/>
    </output>

    <processing>
        <default.speeddev value="0"/>
        <pedestrian.model value="nonInteracting"/>
    </processing>

    <report>
        <xml-validation value="never"/>
        <duration-log.disable value="true"/>
        <no-step-log value="true"/>
    </report>

    <mesoscopic>
        <mesosim value="true"/>
    </mesoscopic>

</configuration>
-->

<routes xmlns:xsi="http://www.w3.org/2001/XMLSchema-instance" xsi:noNamespaceSchemaLocation="http://sumo.dlr.de/xsd/routes_file.xsd">
    <vehicle id="high.11" depart="20.00" arrival="39.00">
        <route edges="beg middle end"/>
    </vehicle>

    <vehicle id="high.12" depart="22.00" arrival="41.00">
        <route edges="beg middle end"/>
    </vehicle>

    <vehicle id="high.13" depart="24.00" arrival="43.00">
        <route edges="beg middle end"/>
    </vehicle>

    <vehicle id="high.14" depart="26.00" arrival="45.00">
        <route edges="beg middle end"/>
    </vehicle>

    <vehicle id="high.16" depart="29.00" arrival="48.00">
        <route edges="beg middle end"/>
    </vehicle>

    <vehicle id="high.17" depart="31.00" arrival="50.00">
        <route edges="beg middle end"/>
    </vehicle>

    <vehicle id="high.18" depart="33.00" arrival="52.00">
        <route edges="beg middle end"/>
    </vehicle>

    <vehicle id="high.19" depart="35.00" arrival="54.00">
        <route edges="beg middle end"/>
    </vehicle>

    <vehicle id="high.21" depart="38.00" arrival="57.00">
        <route edges="beg middle end"/>
    </vehicle>

    <vehicle id="high.0" depart="0.00" arrival="58.00">
        <route edges="beg middle end"/>
    </vehicle>

    <vehicle id="high.22" depart="40.00" arrival="59.00">
        <route edges="beg middle end"/>
    </vehicle>

    <vehicle id="high.1" depart="2.00" arrival="60.00">
        <route edges="beg middle end"/>
    </vehicle>

    <vehicle id="high.23" depart="42.00" arrival="61.00">
        <route edges="beg middle end"/>
    </vehicle>

    <vehicle id="high.2" depart="4.00" arrival="62.00">
        <route edges="beg middle end"/>
    </vehicle>

    <vehicle id="high.24" depart="44.00" arrival="63.00">
        <route edges="beg middle end"/>
    </vehicle>

    <vehicle id="high.3" depart="6.00" arrival="64.00">
        <route edges="beg middle end"/>
    </vehicle>

    <vehicle id="high.4" depart="8.00" arrival="66.00">
        <route edges="beg middle end"/>
    </vehicle>

    <vehicle id="high.26" depart="47.00" arrival="66.00">
        <route edges="beg middle end"/>
    </vehicle>

    <vehicle id="high.5" depart="9.00" arrival="67.00">
        <route edges="beg middle end"/>
    </vehicle>

    <vehicle id="high.27" depart="49.00" arrival="68.00">
        <route edges="beg middle end"/>
    </vehicle>

    <vehicle id="high.6" depart="11.00" arrival="69.00">
        <route edges="beg middle end"/>
    </vehicle>

    <vehicle id="high.28" depart="51.00" arrival="70.00">
        <route edges="beg middle end"/>
    </vehicle>

    <vehicle id="high.7" depart="13.00" arrival="71.00">
        <route edges="beg middle end"/>
    </vehicle>

    <vehicle id="high.29" depart="53.00" arrival="72.00">
        <route edges="beg middle end"/>
    </vehicle>

    <vehicle id="high.8" depart="15.00" arrival="73.00">
        <route edges="beg middle end"/>
    </vehicle>

    <vehicle id="high.9" depart="17.00" arrival="75.00">
        <route edges="beg middle end"/>
    </vehicle>

    <vehicle id="high.31" depart="56.00" arrival="75.00">
        <route edges="beg middle end"/>
    </vehicle>

    <vehicle id="high.10" depart="18.00" arrival="76.00">
        <route edges="beg middle end"/>
    </vehicle>

    <vehicle id="high.32" depart="58.00" arrival="77.00">
        <route edges="beg middle end"/>
    </vehicle>

    <vehicle id="high.33" depart="60.00" arrival="79.00">
        <route edges="beg middle end"/>
    </vehicle>

    <vehicle id="high.34" depart="62.00" arrival="81.00">
        <route edges="beg middle end"/>
    </vehicle>

    <vehicle id="high.36" depart="65.00" arrival="84.00">
        <route edges="beg middle end"/>
    </vehicle>

    <vehicle id="high.15" depart="27.00" arrival="85.00">
        <route edges="beg middle end"/>
    </vehicle>

    <vehicle id="high.37" depart="67.00" arrival="86.00">
        <route edges="beg middle end"/>
    </vehicle>

    <vehicle id="high.38" depart="69.00" arrival="88.00">
        <route edges="beg middle end"/>
    </vehicle>

    <vehicle id="high.39" depart="71.00" arrival="90.00">
        <route edges="beg middle end"/>
    </vehicle>

    <vehicle id="high.41" depart="74.00" arrival="93.00">
        <route edges="beg middle end"/>
    </vehicle>

    <vehicle id="high.20" depart="36.00" arrival="94.00">
        <route edges="beg middle end"/>
    </vehicle>

    <vehicle id="high.42" depart="76.00" arrival="95.00">
        <route edges="beg middle end"/>
    </vehicle>

    <vehicle id="high.43" depart="78.00" arrival="97.00">
        <route edges="beg middle end"/>
    </vehicle>

    <vehicle id="high.44" depart="80.00" arrival="99.00">
        <route edges="beg middle end"/>
    </vehicle>

    <vehicle id="high.46" depart="83.00" arrival="102.00">
        <route edges="beg middle end"/>
    </vehicle>

    <vehicle id="high.25" depart="45.00" arrival="103.00">
        <route edges="beg middle end"/>
    </vehicle>

    <vehicle id="high.47" depart="85.00" arrival="104.00">
        <route edges="beg middle end"/>
    </vehicle>

    <vehicle id="high.48" depart="87.00" arrival="106.00">
        <route edges="beg middle end"/>
    </vehicle>

    <vehicle id="high.49" depart="89.00" arrival="108.00">
        <route edges="beg middle end"/>
    </vehicle>

    <vehicle id="high.51" depart="92.00" arrival="111.00">
        <route edges="beg middle end"/>
    </vehicle>

    <vehicle id="high.30" depart="54.00" arrival="112.00">
        <route edges="beg middle end"/>
    </vehicle>

    <vehicle id="high.52" depart="94.00" arrival="113.00">
        <route edges="beg middle end"/>
    </vehicle>

    <vehicle id="high.53" depart="96.00" arrival="115.00">
        <route edges="beg middle end"/>
    </vehicle>

    <vehicle id="high.54" depart="98.00" arrival="117.00">
        <route edges="beg middle end"/>
    </vehicle>

    <vehicle id="high.56" depart="101.00" arrival="120.00">
        <route edges="beg middle end"/>
    </vehicle>

    <vehicle id="high.35" depart="63.00" arrival="121.00">
        <route edges="beg middle end"/>
    </vehicle>

    <vehicle id="high.57" depart="103.00" arrival="122.00">
        <route edges="beg middle end"/>
    </vehicle>

    <vehicle id="high.58" depart="105.00" arrival="124.00">
        <route edges="beg middle end"/>
    </vehicle>

    <vehicle id="high.59" depart="107.00" arrival="126.00">
        <route edges="beg middle end"/>
    </vehicle>

    <vehicle id="high.61" depart="110.00" arrival="129.00">
        <route edges="beg middle end"/>
    </vehicle>

    <vehicle id="high.40" depart="72.00" arrival="130.00">
        <route edges="beg middle end"/>
    </vehicle>

    <vehicle id="high.62" depart="112.00" arrival="131.00">
        <route edges="beg middle end"/>
    </vehicle>

    <vehicle id="high.63" depart="114.00" arrival="133.00">
        <route edges="beg middle end"/>
    </vehicle>

    <vehicle id="high.64" depart="116.00" arrival="135.00">
        <route edges="beg middle end"/>
    </vehicle>

    <vehicle id="high.66" depart="119.00" arrival="138.00">
        <route edges="beg middle end"/>
    </vehicle>

    <vehicle id="high.45" depart="81.00" arrival="139.00">
        <route edges="beg middle end"/>
    </vehicle>

    <vehicle id="high.67" depart="121.00" arrival="140.00">
        <route edges="beg middle end"/>
    </vehicle>

    <vehicle id="high.68" depart="123.00" arrival="142.00">
        <route edges="beg middle end"/>
    </vehicle>

    <vehicle id="high.69" depart="125.00" arrival="144.00">
        <route edges="beg middle end"/>
    </vehicle>

    <vehicle id="high.71" depart="128.00" arrival="147.00">
        <route edges="beg middle end"/>
    </vehicle>

    <vehicle id="high.50" depart="90.00" arrival="148.00">
        <route edges="beg middle end"/>
    </vehicle>

    <vehicle id="high.72" depart="130.00" arrival="149.00">
        <route edges="beg middle end"/>
    </vehicle>

    <vehicle id="high.73" depart="132.00" arrival="151.00">
        <route edges="beg middle end"/>
    </vehicle>

    <vehicle id="high.74" depart="134.00" arrival="153.00">
        <route edges="beg middle end"/>
    </vehicle>

    <vehicle id="high.76" depart="137.00" arrival="156.00">
        <route edges="beg middle end"/>
    </vehicle>

    <vehicle id="high.55" depart="99.00" arrival="157.00">
        <route edges="beg middle end"/>
    </vehicle>

    <vehicle id="high.77" depart="139.00" arrival="158.00">
        <route edges="beg middle end"/>
    </vehicle>

    <vehicle id="high.78" depart="141.00" arrival="160.00">
        <route edges="beg middle end"/>
    </vehicle>

    <vehicle id="high.79" depart="143.00" arrival="162.00">
        <route edges="beg middle end"/>
    </vehicle>

    <vehicle id="high.81" depart="146.00" arrival="165.00">
        <route edges="beg middle end"/>
    </vehicle>

    <vehicle id="high.60" depart="108.00" arrival="166.00">
        <route edges="beg middle end"/>
    </vehicle>

    <vehicle id="high.82" depart="148.00" arrival="167.00">
        <route edges="beg middle end"/>
    </vehicle>

    <vehicle id="high.83" depart="150.00" arrival="169.00">
        <route edges="beg middle end"/>
    </vehicle>

    <vehicle id="high.84" depart="152.00" arrival="171.00">
        <route edges="beg middle end"/>
    </vehicle>

    <vehicle id="high.86" depart="155.00" arrival="174.00">
        <route edges="beg middle end"/>
    </vehicle>

    <vehicle id="high.65" depart="117.00" arrival="175.00">
        <route edges="beg middle end"/>
    </vehicle>

    <vehicle id="high.87" depart="157.00" arrival="176.00">
        <route edges="beg middle end"/>
    </vehicle>

    <vehicle id="high.88" depart="159.00" arrival="178.00">
        <route edges="beg middle end"/>
    </vehicle>

    <vehicle id="high.89" depart="161.00" arrival="180.00">
        <route edges="beg middle end"/>
    </vehicle>

    <vehicle id="high.91" depart="164.00" arrival="183.00">
        <route edges="beg middle end"/>
    </vehicle>

    <vehicle id="high.70" depart="126.00" arrival="184.00">
        <route edges="beg middle end"/>
    </vehicle>

    <vehicle id="high.92" depart="166.00" arrival="185.00">
        <route edges="beg middle end"/>
    </vehicle>

    <vehicle id="high.93" depart="168.00" arrival="187.00">
        <route edges="beg middle end"/>
    </vehicle>

    <vehicle id="high.94" depart="170.00" arrival="189.00">
        <route edges="beg middle end"/>
    </vehicle>

    <vehicle id="high.96" depart="173.00" arrival="192.00">
        <route edges="beg middle end"/>
    </vehicle>

    <vehicle id="high.75" depart="135.00" arrival="193.00">
        <route edges="beg middle end"/>
    </vehicle>

    <vehicle id="high.97" depart="175.00" arrival="194.00">
        <route edges="beg middle end"/>
    </vehicle>

    <vehicle id="high.98" depart="177.00" arrival="196.00">
        <route edges="beg middle end"/>
    </vehicle>

    <vehicle id="high.99" depart="179.00" arrival="198.00">
        <route edges="beg middle end"/>
    </vehicle>

    <vehicle id="high.101" depart="182.00" arrival="201.00">
        <route edges="beg middle end"/>
    </vehicle>

    <vehicle id="high.80" depart="144.00" arrival="202.00">
        <route edges="beg middle end"/>
    </vehicle>

    <vehicle id="high.102" depart="184.00" arrival="203.00">
        <route edges="beg middle end"/>
    </vehicle>

    <vehicle id="high.103" depart="186.00" arrival="205.00">
        <route edges="beg middle end"/>
    </vehicle>

    <vehicle id="high.104" depart="188.00" arrival="207.00">
        <route edges="beg middle end"/>
    </vehicle>

    <vehicle id="high.106" depart="191.00" arrival="210.00">
        <route edges="beg middle end"/>
    </vehicle>

    <vehicle id="high.85" depart="153.00" arrival="211.00">
        <route edges="beg middle end"/>
    </vehicle>

    <vehicle id="high.107" depart="193.00" arrival="212.00">
        <route edges="beg middle end"/>
    </vehicle>

    <vehicle id="high.108" depart="195.00" arrival="214.00">
        <route edges="beg middle end"/>
    </vehicle>

    <vehicle id="high.109" depart="197.00" arrival="216.00">
        <route edges="beg middle end"/>
    </vehicle>

    <vehicle id="high.111" depart="200.00" arrival="219.00">
        <route edges="beg middle end"/>
    </vehicle>

    <vehicle id="high.90" depart="162.00" arrival="220.00">
        <route edges="beg middle end"/>
    </vehicle>

    <vehicle id="high.112" depart="202.00" arrival="221.00">
        <route edges="beg middle end"/>
    </vehicle>

    <vehicle id="high.113" depart="204.00" arrival="223.00">
        <route edges="beg middle end"/>
    </vehicle>

    <vehicle id="high.114" depart="206.00" arrival="225.00">
        <route edges="beg middle end"/>
    </vehicle>

    <vehicle id="high.116" depart="209.00" arrival="228.00">
        <route edges="beg middle end"/>
    </vehicle>

    <vehicle id="high.95" depart="171.00" arrival="229.00">
        <route edges="beg middle end"/>
    </vehicle>

    <vehicle id="high.117" depart="211.00" arrival="230.00">
        <route edges="beg middle end"/>
    </vehicle>

    <vehicle id="high.118" depart="213.00" arrival="232.00">
        <route edges="beg middle end"/>
    </vehicle>

    <vehicle id="high.119" depart="215.00" arrival="234.00">
        <route edges="beg middle end"/>
    </vehicle>

    <vehicle id="high.121" depart="218.00" arrival="237.00">
        <route edges="beg middle end"/>
    </vehicle>

    <vehicle id="high.100" depart="180.00" arrival="238.00">
        <route edges="beg middle end"/>
    </vehicle>

    <vehicle id="high.122" depart="220.00" arrival="239.00">
        <route edges="beg middle end"/>
    </vehicle>

    <vehicle id="high.123" depart="222.00" arrival="241.00">
        <route edges="beg middle end"/>
    </vehicle>

    <vehicle id="high.124" depart="224.00" arrival="243.00">
        <route edges="beg middle end"/>
    </vehicle>

    <vehicle id="high.126" depart="227.00" arrival="246.00">
        <route edges="beg middle end"/>
    </vehicle>

    <vehicle id="high.105" depart="189.00" arrival="247.00">
        <route edges="beg middle end"/>
    </vehicle>

    <vehicle id="high.127" depart="229.00" arrival="248.00">
        <route edges="beg middle end"/>
    </vehicle>

    <vehicle id="high.128" depart="231.00" arrival="250.00">
        <route edges="beg middle end"/>
    </vehicle>

    <vehicle id="high.129" depart="233.00" arrival="252.00">
        <route edges="beg middle end"/>
    </vehicle>

    <vehicle id="high.131" depart="236.00" arrival="255.00">
        <route edges="beg middle end"/>
    </vehicle>

    <vehicle id="high.110" depart="198.00" arrival="256.00">
        <route edges="beg middle end"/>
    </vehicle>

    <vehicle id="high.132" depart="238.00" arrival="257.00">
        <route edges="beg middle end"/>
    </vehicle>

    <vehicle id="high.133" depart="240.00" arrival="259.00">
        <route edges="beg middle end"/>
    </vehicle>

    <vehicle id="high.134" depart="242.00" arrival="261.00">
        <route edges="beg middle end"/>
    </vehicle>

    <vehicle id="high.136" depart="245.00" arrival="264.00">
        <route edges="beg middle end"/>
    </vehicle>

    <vehicle id="high.115" depart="207.00" arrival="265.00">
        <route edges="beg middle end"/>
    </vehicle>

    <vehicle id="high.137" depart="247.00" arrival="266.00">
        <route edges="beg middle end"/>
    </vehicle>

    <vehicle id="high.138" depart="249.00" arrival="268.00">
        <route edges="beg middle end"/>
    </vehicle>

    <vehicle id="high.139" depart="251.00" arrival="270.00">
        <route edges="beg middle end"/>
    </vehicle>

    <vehicle id="high.141" depart="254.00" arrival="273.00">
        <route edges="beg middle end"/>
    </vehicle>

    <vehicle id="high.120" depart="216.00" arrival="274.00">
        <route edges="beg middle end"/>
    </vehicle>

    <vehicle id="high.142" depart="256.00" arrival="275.00">
        <route edges="beg middle end"/>
    </vehicle>

    <vehicle id="high.143" depart="258.00" arrival="277.00">
        <route edges="beg middle end"/>
    </vehicle>

    <vehicle id="high.144" depart="260.00" arrival="279.00">
        <route edges="beg middle end"/>
    </vehicle>

    <vehicle id="high.146" depart="263.00" arrival="282.00">
        <route edges="beg middle end"/>
    </vehicle>

    <vehicle id="high.125" depart="225.00" arrival="283.00">
        <route edges="beg middle end"/>
    </vehicle>

    <vehicle id="high.147" depart="265.00" arrival="284.00">
        <route edges="beg middle end"/>
    </vehicle>

    <vehicle id="high.148" depart="267.00" arrival="286.00">
        <route edges="beg middle end"/>
    </vehicle>

    <vehicle id="high.149" depart="269.00" arrival="288.00">
        <route edges="beg middle end"/>
    </vehicle>

    <vehicle id="high.151" depart="272.00" arrival="291.00">
        <route edges="beg middle end"/>
    </vehicle>

    <vehicle id="high.130" depart="234.00" arrival="292.00">
        <route edges="beg middle end"/>
    </vehicle>

    <vehicle id="high.152" depart="274.00" arrival="293.00">
        <route edges="beg middle end"/>
    </vehicle>

    <vehicle id="high.153" depart="276.00" arrival="295.00">
        <route edges="beg middle end"/>
    </vehicle>

    <vehicle id="high.154" depart="278.00" arrival="297.00">
        <route edges="beg middle end"/>
    </vehicle>

    <vehicle id="high.156" depart="281.00" arrival="300.00">
        <route edges="beg middle end"/>
    </vehicle>

    <vehicle id="high.135" depart="243.00" arrival="301.00">
        <route edges="beg middle end"/>
    </vehicle>

    <vehicle id="high.140" depart="252.00" arrival="310.00">
        <route edges="beg middle end"/>
    </vehicle>

    <vehicle id="high.145" depart="261.00" arrival="319.00">
        <route edges="beg middle end"/>
    </vehicle>

    <vehicle id="high.150" depart="270.00" arrival="328.00">
        <route edges="beg middle end"/>
    </vehicle>

    <vehicle id="high.155" depart="279.00" arrival="337.00">
        <route edges="beg middle end"/>
    </vehicle>

    <vehicle id="high.157" depart="283.00" arrival="341.00">
        <route edges="beg middle end"/>
    </vehicle>

    <vehicle id="high.158" depart="285.00" arrival="343.00">
        <route edges="beg middle end"/>
    </vehicle>

    <vehicle id="high.159" depart="287.00" arrival="345.00">
        <route edges="beg middle end"/>
    </vehicle>

    <vehicle id="high.160" depart="288.00" arrival="346.00">
        <route edges="beg middle end"/>
    </vehicle>

    <vehicle id="high.161" depart="290.00" arrival="348.00">
        <route edges="beg middle end"/>
    </vehicle>

    <vehicle id="high.162" depart="292.00" arrival="350.00">
        <route edges="beg middle end"/>
    </vehicle>

    <vehicle id="high.163" depart="294.00" arrival="352.00">
        <route edges="beg middle end"/>
    </vehicle>

    <vehicle id="high.164" depart="296.00" arrival="354.00">
        <route edges="beg middle end"/>
    </vehicle>

    <vehicle id="high.165" depart="297.00" arrival="355.00">
        <route edges="beg middle end"/>
    </vehicle>

    <vehicle id="high.166" depart="299.00" arrival="357.00">
        <route edges="beg middle end"/>
    </vehicle>

    <vehicle id="high.167" depart="301.00" arrival="359.00">
        <route edges="beg middle end"/>
    </vehicle>

    <vehicle id="high.168" depart="303.00" arrival="361.00">
        <route edges="beg middle end"/>
    </vehicle>

    <vehicle id="high.169" depart="305.00" arrival="363.00">
        <route edges="beg middle end"/>
    </vehicle>

    <vehicle id="high.170" depart="306.00" arrival="364.00">
        <route edges="beg middle end"/>
    </vehicle>

    <vehicle id="high.171" depart="308.00" arrival="366.00">
        <route edges="beg middle end"/>
    </vehicle>

    <vehicle id="high.172" depart="310.00" arrival="368.00">
        <route edges="beg middle end"/>
    </vehicle>

    <vehicle id="high.173" depart="312.00" arrival="370.00">
        <route edges="beg middle end"/>
    </vehicle>

    <vehicle id="high.174" depart="314.00" arrival="372.00">
        <route edges="beg middle end"/>
    </vehicle>

    <vehicle id="high.175" depart="315.00" arrival="373.00">
        <route edges="beg middle end"/>
    </vehicle>

    <vehicle id="high.176" depart="317.00" arrival="375.00">
        <route edges="beg middle end"/>
    </vehicle>

    <vehicle id="high.177" depart="319.00" arrival="377.00">
        <route edges="beg middle end"/>
    </vehicle>

    <vehicle id="high.178" depart="321.00" arrival="379.00">
        <route edges="beg middle end"/>
    </vehicle>

    <vehicle id="high.179" depart="323.00" arrival="381.00">
        <route edges="beg middle end"/>
    </vehicle>

    <vehicle id="high.180" depart="324.00" arrival="382.00">
        <route edges="beg middle end"/>
    </vehicle>

    <vehicle id="high.181" depart="326.00" arrival="384.00">
        <route edges="beg middle end"/>
    </vehicle>

    <vehicle id="high.182" depart="328.00" arrival="386.00">
        <route edges="beg middle end"/>
    </vehicle>

    <vehicle id="high.183" depart="330.00" arrival="388.00">
        <route edges="beg middle end"/>
    </vehicle>

    <vehicle id="high.184" depart="332.00" arrival="390.00">
        <route edges="beg middle end"/>
    </vehicle>

    <vehicle id="high.185" depart="333.00" arrival="391.00">
        <route edges="beg middle end"/>
    </vehicle>

    <vehicle id="high.186" depart="335.00" arrival="393.00">
        <route edges="beg middle end"/>
    </vehicle>

    <vehicle id="high.187" depart="337.00" arrival="395.00">
        <route edges="beg middle end"/>
    </vehicle>

    <vehicle id="high.188" depart="339.00" arrival="397.00">
        <route edges="beg middle end"/>
    </vehicle>

    <vehicle id="high.189" depart="341.00" arrival="399.00">
        <route edges="beg middle end"/>
    </vehicle>

    <vehicle id="high.190" depart="342.00" arrival="400.00">
        <route edges="beg middle end"/>
    </vehicle>

    <vehicle id="high.191" depart="344.00" arrival="402.00">
        <route edges="beg middle end"/>
    </vehicle>

    <vehicle id="high.192" depart="346.00" arrival="404.00">
        <route edges="beg middle end"/>
    </vehicle>

    <vehicle id="high.193" depart="348.00" arrival="406.00">
        <route edges="beg middle end"/>
    </vehicle>

    <vehicle id="high.194" depart="350.00" arrival="408.00">
        <route edges="beg middle end"/>
    </vehicle>

    <vehicle id="high.195" depart="351.00" arrival="409.00">
        <route edges="beg middle end"/>
    </vehicle>

    <vehicle id="high.196" depart="353.00" arrival="411.00">
        <route edges="beg middle end"/>
    </vehicle>

    <vehicle id="high.197" depart="355.00" arrival="413.00">
        <route edges="beg middle end"/>
    </vehicle>

    <vehicle id="high.198" depart="357.00" arrival="415.00">
        <route edges="beg middle end"/>
    </vehicle>

    <vehicle id="high.199" depart="359.00" arrival="417.00">
        <route edges="beg middle end"/>
    </vehicle>

    <vehicle id="high.200" depart="360.00" arrival="418.00">
        <route edges="beg middle end"/>
    </vehicle>

    <vehicle id="high.201" depart="362.00" arrival="420.00">
        <route edges="beg middle end"/>
    </vehicle>

    <vehicle id="high.202" depart="364.00" arrival="422.00">
        <route edges="beg middle end"/>
    </vehicle>

    <vehicle id="high.203" depart="366.00" arrival="424.00">
        <route edges="beg middle end"/>
    </vehicle>

    <vehicle id="high.204" depart="368.00" arrival="426.00">
        <route edges="beg middle end"/>
    </vehicle>

    <vehicle id="high.205" depart="369.00" arrival="427.00">
        <route edges="beg middle end"/>
    </vehicle>

    <vehicle id="high.206" depart="371.00" arrival="429.00">
        <route edges="beg middle end"/>
    </vehicle>

    <vehicle id="high.207" depart="373.00" arrival="431.00">
        <route edges="beg middle end"/>
    </vehicle>

    <vehicle id="high.208" depart="375.00" arrival="433.00">
        <route edges="beg middle end"/>
    </vehicle>

    <vehicle id="high.209" depart="377.00" arrival="435.00">
        <route edges="beg middle end"/>
    </vehicle>

    <vehicle id="high.210" depart="378.00" arrival="436.00">
        <route edges="beg middle end"/>
    </vehicle>

    <vehicle id="high.211" depart="380.00" arrival="438.00">
        <route edges="beg middle end"/>
    </vehicle>

    <vehicle id="high.212" depart="382.00" arrival="440.00">
        <route edges="beg middle end"/>
    </vehicle>

    <vehicle id="high.213" depart="384.00" arrival="442.00">
        <route edges="beg middle end"/>
    </vehicle>

    <vehicle id="high.214" depart="386.00" arrival="444.00">
        <route edges="beg middle end"/>
    </vehicle>

    <vehicle id="high.215" depart="387.00" arrival="445.00">
        <route edges="beg middle end"/>
    </vehicle>

    <vehicle id="high.216" depart="389.00" arrival="447.00">
        <route edges="beg middle end"/>
    </vehicle>

    <vehicle id="high.217" depart="391.00" arrival="449.00">
        <route edges="beg middle end"/>
    </vehicle>

    <vehicle id="high.218" depart="393.00" arrival="451.00">
        <route edges="beg middle end"/>
    </vehicle>

    <vehicle id="high.219" depart="395.00" arrival="453.00">
        <route edges="beg middle end"/>
    </vehicle>

    <vehicle id="high.220" depart="396.00" arrival="454.00">
        <route edges="beg middle end"/>
    </vehicle>

    <vehicle id="high.221" depart="398.00" arrival="456.00">
        <route edges="beg middle end"/>
    </vehicle>

    <vehicle id="high.222" depart="400.00" arrival="458.00">
        <route edges="beg middle end"/>
    </vehicle>

    <vehicle id="high.223" depart="402.00" arrival="460.00">
        <route edges="beg middle end"/>
    </vehicle>

    <vehicle id="high.224" depart="404.00" arrival="462.00">
        <route edges="beg middle end"/>
    </vehicle>

    <vehicle id="high.225" depart="405.00" arrival="463.00">
        <route edges="beg middle end"/>
    </vehicle>

    <vehicle id="high.226" depart="407.00" arrival="465.00">
        <route edges="beg middle end"/>
    </vehicle>

    <vehicle id="high.227" depart="409.00" arrival="467.00">
        <route edges="beg middle end"/>
    </vehicle>

    <vehicle id="high.228" depart="411.00" arrival="469.00">
        <route edges="beg middle end"/>
    </vehicle>

    <vehicle id="high.229" depart="413.00" arrival="471.00">
        <route edges="beg middle end"/>
    </vehicle>

    <vehicle id="high.230" depart="414.00" arrival="472.00">
        <route edges="beg middle end"/>
    </vehicle>

    <vehicle id="high.231" depart="416.00" arrival="474.00">
        <route edges="beg middle end"/>
    </vehicle>

    <vehicle id="high.232" depart="418.00" arrival="476.00">
        <route edges="beg middle end"/>
    </vehicle>

    <vehicle id="high.233" depart="420.00" arrival="478.00">
        <route edges="beg middle end"/>
    </vehicle>

    <vehicle id="high.234" depart="422.00" arrival="480.00">
        <route edges="beg middle end"/>
    </vehicle>

    <vehicle id="high.235" depart="423.00" arrival="481.00">
        <route edges="beg middle end"/>
    </vehicle>

    <vehicle id="high.236" depart="425.00" arrival="483.00">
        <route edges="beg middle end"/>
    </vehicle>

    <vehicle id="high.237" depart="427.00" arrival="485.00">
        <route edges="beg middle end"/>
    </vehicle>

    <vehicle id="high.238" depart="429.00" arrival="487.00">
        <route edges="beg middle end"/>
    </vehicle>

    <vehicle id="high.239" depart="431.00" arrival="489.00">
        <route edges="beg middle end"/>
    </vehicle>

    <vehicle id="high.240" depart="432.00" arrival="490.00">
        <route edges="beg middle end"/>
    </vehicle>

    <vehicle id="high.241" depart="434.00" arrival="492.00">
        <route edges="beg middle end"/>
    </vehicle>

    <vehicle id="high.242" depart="436.00" arrival="494.00">
        <route edges="beg middle end"/>
    </vehicle>

    <vehicle id="high.243" depart="438.00" arrival="496.00">
        <route edges="beg middle end"/>
    </vehicle>

    <vehicle id="high.244" depart="440.00" arrival="498.00">
        <route edges="beg middle end"/>
    </vehicle>

    <vehicle id="high.245" depart="441.00" arrival="499.00">
        <route edges="beg middle end"/>
    </vehicle>

    <vehicle id="high.246" depart="443.00" arrival="501.00">
        <route edges="beg middle end"/>