<?xml version="1.0" encoding="UTF-8"?>

<!-- generated on 2022-04-05 10:32:47 by Eclipse SUMO sumo Version v1_12_0+1949-1d2ae20f770
This data file and the accompanying materials
are made available under the terms of the Eclipse Public License v2.0
which accompanies this distribution, and is available at
http://www.eclipse.org/legal/epl-v20.html
This file may also be made available under the following Secondary
Licenses when the conditions for such availability set forth in the Eclipse
Public License 2.0 are satisfied: GNU General Public License, version 2
or later which is available at
https://www.gnu.org/licenses/old-licenses/gpl-2.0-standalone.html
SPDX-License-Identifier: EPL-2.0 OR GPL-2.0-or-later
<configuration xmlns:xsi="http://www.w3.org/2001/XMLSchema-instance" xsi:noNamespaceSchemaLocation="http://sumo.dlr.de/xsd/sumoConfiguration.xsd">

    <input>
        <net-file value="net.net.xml"/>
        <route-files value="input_routes.rou.xml"/>
        <additional-files value="input_additional.add.xml"/>
    </input>

    <output>
        <write-license value="true"/>
        <tripinfo-output value="tripinfos.xml"/>
    </output>

    <processing>
        <default.speeddev value="0"/>
        <pedestrian.model value="nonInteracting"/>
    </processing>

    <report>
        <xml-validation value="never"/>
        <xml-validation.routes value="never"/>
        <duration-log.disable value="true"/>
        <no-step-log value="true"/>
    </report>

    <mesoscopic>
        <mesosim value="true"/>
        <meso-junction-control value="true"/>
    </mesoscopic>

</configuration>
-->

<tripinfos xmlns:xsi="http://www.w3.org/2001/XMLSchema-instance" xsi:noNamespaceSchemaLocation="http://sumo.dlr.de/xsd/tripinfo_file.xsd">
    <tripinfo id="vehicle_1" depart="0.00" departLane="" departPos="0.00" departSpeed="0.00" departDelay="0.00" arrival="206.00" arrivalLane="" arrivalPos="26.80" arrivalSpeed="13.89" duration="206.00" routeLength="73.60" waitingTime="0.00" waitingCount="0" stopTime="200.00" timeLoss="0.00" rerouteNo="1" devices="tripinfo_vehicle_1 routing_vehicle_1" vType="DEFAULT_VEHTYPE" speedFactor="1.00" vaporized=""/>
    <tripinfo id="vehicle_2" depart="0.00" departLane="" departPos="0.00" departSpeed="0.00" departDelay="0.00" arrival="226.00" arrivalLane="" arrivalPos="26.80" arrivalSpeed="13.89" duration="226.00" routeLength="73.60" waitingTime="0.00" waitingCount="0" stopTime="220.00" timeLoss="0.00" rerouteNo="1" devices="tripinfo_vehicle_2 routing_vehicle_2" vType="DEFAULT_VEHTYPE" speedFactor="1.00" vaporized=""/>
    <tripinfo id="vehicle_3" depart="0.00" departLane="" departPos="0.00" departSpeed="0.00" departDelay="0.00" arrival="246.00" arrivalLane="" arrivalPos="26.80" arrivalSpeed="13.89" duration="246.00" routeLength="73.60" waitingTime="0.00" waitingCount="0" stopTime="240.00" timeLoss="0.00" rerouteNo="1" devices="tripinfo_vehicle_3 routing_vehicle_3" vType="DEFAULT_VEHTYPE" speedFactor="1.00" vaporized=""/>
    <tripinfo id="vehicle_4" depart="0.00" departLane="" departPos="0.00" departSpeed="0.00" departDelay="0.00" arrival="266.00" arrivalLane="" arrivalPos="26.80" arrivalSpeed="13.89" duration="266.00" routeLength="73.60" waitingTime="0.00" waitingCount="0" stopTime="260.00" timeLoss="0.00" rerouteNo="1" devices="tripinfo_vehicle_4 routing_vehicle_4" vType="DEFAULT_VEHTYPE" speedFactor="1.00" vaporized=""/>
    <tripinfo id="vehicle_5" depart="0.00" departLane="" departPos="0.00" departSpeed="0.00" departDelay="0.00" arrival="286.00" arrivalLane="" arrivalPos="26.80" arrivalSpeed="13.89" duration="286.00" routeLength="73.60" waitingTime="0.00" waitingCount="0" stopTime="280.00" timeLoss="0.00" rerouteNo="1" devices="tripinfo_vehicle_5 routing_vehicle_5" vType="DEFAULT_VEHTYPE" speedFactor="1.00" vaporized=""/>
    <tripinfo id="vehicle_6" depart="0.00" departLane="" departPos="0.00" departSpeed="0.00" departDelay="0.00" arrival="306.00" arrivalLane="" arrivalPos="26.80" arrivalSpeed="13.89" duration="306.00" routeLength="73.60" waitingTime="0.00" waitingCount="0" stopTime="300.00" timeLoss="0.00" rerouteNo="1" devices="tripinfo_vehicle_6 routing_vehicle_6" vType="DEFAULT_VEHTYPE" speedFactor="1.00" vaporized=""/>
</tripinfos>
