<?xml version="1.0"?>

<!-- generated on 04/17/08 12:07:01 by SUMO sumo Version 0.9.7
<configuration>

   <input>
      <net-file>three_split.net.xml</net-file>
      <additional-files>input_routes.rou.xml</additional-files>
   </input>

   <output>
      <vehroute-output>vehroutes.xml</vehroute-output>
   </output>

   <time>
      <begin>0</begin>
   </time>

   <processing>
      <no-duration-log>true</no-duration-log>
      <no-step-log>true</no-step-log>
   </processing>

   <routing>
      <device.routing.probability>1</device.routing.probability>
   </routing>

</configuration>
-->

<routes>
   <vehicle id="0" depart="0" arrival="77">
      <replaced_route replacedOnEdge="beg"  replacedAtTime="0">beg beg2right right right2end end rend</replaced_route>

      <route>beg middle end rend</route>
   </vehicle>

   <vehicle id="0_0" depart="20" arrival="97">
      <replaced_route replacedOnEdge="beg"  replacedAtTime="20">beg beg2right right right2end end rend</replaced_route>

      <route>beg middle end rend</route>
   </vehicle>

   <vehicle id="0_1" depart="40" arrival="117">
      <replaced_route replacedOnEdge="beg"  replacedAtTime="40">beg beg2right right right2end end rend</replaced_route>

      <route>beg middle end rend</route>
   </vehicle>

   <vehicle id="0_2" depart="60" arrival="137">
      <replaced_route replacedOnEdge="beg"  replacedAtTime="60">beg beg2right right right2end end rend</replaced_route>

      <route>beg middle end rend</route>
   </vehicle>

   <vehicle id="0_3" depart="80" arrival="157">
      <replaced_route replacedOnEdge="beg"  replacedAtTime="80">beg beg2right right right2end end rend</replaced_route>

      <route>beg middle end rend</route>
   </vehicle>

   <vehicle id="0_4" depart="100" arrival="177">
      <replaced_route replacedOnEdge="beg"  replacedAtTime="100">beg beg2right right right2end end rend</replaced_route>

      <route>beg middle end rend</route>
   </vehicle>

   <vehicle id="0_5" depart="120" arrival="197">
      <replaced_route replacedOnEdge="beg"  replacedAtTime="120">beg beg2right right right2end end rend</replaced_route>

      <route>beg middle end rend</route>
   </vehicle>

   <vehicle id="0_6" depart="140" arrival="217">
      <replaced_route replacedOnEdge="beg"  replacedAtTime="140">beg beg2right right right2end end rend</replaced_route>

      <route>beg middle end rend</route>
   </vehicle>

   <vehicle id="0_7" depart="160" arrival="237">
      <replaced_route replacedOnEdge="beg"  replacedAtTime="160">beg beg2right right right2end end rend</replaced_route>

      <route>beg middle end rend</route>
   </vehicle>

   <vehicle id="0_8" depart="180" arrival="257">
      <replaced_route replacedOnEdge="beg"  replacedAtTime="180">beg beg2right right right2end end rend</replaced_route>

      <route>beg middle end rend</route>
   </vehicle>

   <vehicle id="0_9" depart="200" arrival="277">
      <replaced_route replacedOnEdge="beg"  replacedAtTime="200">beg beg2right right right2end end rend</replaced_route>

      <route>beg middle end rend</route>
   </vehicle>

</routes>
