<?xml version="1.0"?>

<!-- generated on 02/15/12 11:59:33 by SUMO sumo Version dev-SVN-r11548
<?xml version="1.0" encoding="UTF-8"?>

<configuration xmlns:xsi="http://www.w3.org/2001/XMLSchema-instance" xsi:noNamespaceSchemaLocation="http://sumo.sf.net/xsd/sumoConfiguration.xsd">

    <input>
        <net-file value="net.net.xml"/>
        <route-files value="input_routes.rou.xml"/>
    </input>

    <output>
        <vehroute-output value="vehroutes.xml"/>
    </output>

    <report>
        <no-duration-log value="true"/>
        <no-step-log value="true"/>
    </report>

    <mesoscopic>
        <mesosim value="true"/>
        <meso-junction-control value="true"/>
    </mesoscopic>

</configuration>
-->

<routes>
    <vehicle id="horizontal.0" type="SUMO_DEFAULT_TYPE" depart="100.00" arrival="291.00">
        <route edges="2fi 2si 1o 1fi 1si 2o 2fi"/>
    </vehicle>

    <vehicle id="horizontal.1" type="SUMO_DEFAULT_TYPE" depart="110.00" arrival="294.00">
        <route edges="2fi 2si 1o 1fi 1si 2o 2fi"/>
    </vehicle>

    <vehicle id="horizontal.2" type="SUMO_DEFAULT_TYPE" depart="120.00" arrival="297.00">
        <route edges="2fi 2si 1o 1fi 1si 2o 2fi"/>
    </vehicle>

    <vehicle id="vertical.0" type="SUMO_DEFAULT_TYPE" depart="100.00" arrival="340.00">
        <route edges="3fi 3si 4o 4fi 4si 3o 3fi"/>
    </vehicle>

    <vehicle id="vertical.1" type="SUMO_DEFAULT_TYPE" depart="110.00" arrival="342.00">
        <route edges="3fi 3si 4o 4fi 4si 3o 3fi"/>
    </vehicle>

    <vehicle id="vertical.2" type="SUMO_DEFAULT_TYPE" depart="120.00" arrival="343.00">
        <route edges="3fi 3si 4o 4fi 4si 3o 3fi"/>
    </vehicle>

    <vehicle id="vertical.3" type="SUMO_DEFAULT_TYPE" depart="130.00" arrival="344.00">
        <route edges="3fi 3si 4o 4fi 4si 3o 3fi"/>
    </vehicle>

    <vehicle id="vertical.4" type="SUMO_DEFAULT_TYPE" depart="140.00" arrival="346.00">
        <route edges="3fi 3si 4o 4fi 4si 3o 3fi"/>
    </vehicle>

    <vehicle id="vertical.5" type="SUMO_DEFAULT_TYPE" depart="150.00" arrival="347.00">
        <route edges="3fi 3si 4o 4fi 4si 3o 3fi"/>
    </vehicle>

    <vehicle id="vertical.6" type="SUMO_DEFAULT_TYPE" depart="160.00" arrival="349.00">
        <route edges="3fi 3si 4o 4fi 4si 3o 3fi"/>
    </vehicle>

    <vehicle id="horizontal.3" type="SUMO_DEFAULT_TYPE" depart="130.00" arrival="389.00">
        <route edges="2fi 2si 1o 1fi 1si 2o 2fi"/>
    </vehicle>

    <vehicle id="horizontal.4" type="SUMO_DEFAULT_TYPE" depart="140.00" arrival="391.00">
        <route edges="2fi 2si 1o 1fi 1si 2o 2fi"/>
    </vehicle>

    <vehicle id="horizontal.5" type="SUMO_DEFAULT_TYPE" depart="150.00" arrival="393.00">
        <route edges="2fi 2si 1o 1fi 1si 2o 2fi"/>
    </vehicle>

    <vehicle id="vertical.7" type="SUMO_DEFAULT_TYPE" depart="170.00" arrival="404.00">
        <route edges="3fi 3si 4o 4fi 4si 3o 3fi"/>
    </vehicle>

    <vehicle id="horizontal.6" type="SUMO_DEFAULT_TYPE" depart="160.00" arrival="449.00">
        <route edges="2fi 2si 1o 1fi 1si 2o 2fi"/>
    </vehicle>

    <vehicle id="horizontal.7" type="SUMO_DEFAULT_TYPE" depart="170.00" arrival="451.00">
        <route edges="2fi 2si 1o 1fi 1si 2o 2fi"/>
    </vehicle>

    <vehicle id="horizontal.8" type="SUMO_DEFAULT_TYPE" depart="180.00" arrival="452.00">
        <route edges="2fi 2si 1o 1fi 1si 2o 2fi"/>
    </vehicle>

    <vehicle id="horizontal.9" type="SUMO_DEFAULT_TYPE" depart="190.00" arrival="453.00">
        <route edges="2fi 2si 1o 1fi 1si 2o 2fi"/>
    </vehicle>

    <vehicle id="horizontal.10" type="SUMO_DEFAULT_TYPE" depart="200.00" arrival="466.00">
        <route edges="2fi 2si 1o 1fi 1si 2o 2fi"/>
    </vehicle>

    <vehicle id="horizontal.11" type="SUMO_DEFAULT_TYPE" depart="210.00" arrival="469.00">
        <route edges="2fi 2si 1o 1fi 1si 2o 2fi"/>
    </vehicle>

    <vehicle id="vertical.8" type="SUMO_DEFAULT_TYPE" depart="180.00" arrival="494.00">
        <route edges="3fi 3si 4o 4fi 4si 3o 3fi"/>
    </vehicle>

    <vehicle id="vertical.9" type="SUMO_DEFAULT_TYPE" depart="190.00" arrival="496.00">
        <route edges="3fi 3si 4o 4fi 4si 3o 3fi"/>
    </vehicle>

    <vehicle id="vertical.10" type="SUMO_DEFAULT_TYPE" depart="200.00" arrival="498.00">
        <route edges="3fi 3si 4o 4fi 4si 3o 3fi"/>
    </vehicle>

    <vehicle id="vertical.11" type="SUMO_DEFAULT_TYPE" depart="210.00" arrival="500.00">
        <route edges="3fi 3si 4o 4fi 4si 3o 3fi"/>
    </vehicle>

    <vehicle id="vertical.12" type="SUMO_DEFAULT_TYPE" depart="220.00" arrival="502.00">
        <route edges="3fi 3si 4o 4fi 4si 3o 3fi"/>
    </vehicle>

    <vehicle id="vertical.13" type="SUMO_DEFAULT_TYPE" depart="230.00" arrival="504.00">
        <route edges="3fi 3si 4o 4fi 4si 3o 3fi"/>
    </vehicle>

    <vehicle id="vertical.14" type="SUMO_DEFAULT_TYPE" depart="240.00" arrival="506.00">
        <route edges="3fi 3si 4o 4fi 4si 3o 3fi"/>
    </vehicle>

    <vehicle id="vertical.15" type="SUMO_DEFAULT_TYPE" depart="250.00" arrival="508.00">
        <route edges="3fi 3si 4o 4fi 4si 3o 3fi"/>
    </vehicle>

    <vehicle id="vertical.16" type="SUMO_DEFAULT_TYPE" depart="260.00" arrival="510.00">
        <route edges="3fi 3si 4o 4fi 4si 3o 3fi"/>
    </vehicle>

    <vehicle id="always_right.0" type="SUMO_DEFAULT_TYPE" depart="100.00" arrival="525.00">
        <route edges="1fi 1si 4o 4fi 4si 2o 2fi 2si 3o 3fi 3si 1o 1fi"/>
    </vehicle>

    <vehicle id="horizontal.12" type="SUMO_DEFAULT_TYPE" depart="220.00" arrival="539.00">
        <route edges="2fi 2si 1o 1fi 1si 2o 2fi"/>
    </vehicle>

    <vehicle id="horizontal.13" type="SUMO_DEFAULT_TYPE" depart="230.00" arrival="558.00">
        <route edges="2fi 2si 1o 1fi 1si 2o 2fi"/>
    </vehicle>

    <vehicle id="horizontal.14" type="SUMO_DEFAULT_TYPE" depart="240.00" arrival="560.00">
        <route edges="2fi 2si 1o 1fi 1si 2o 2fi"/>
    </vehicle>

    <vehicle id="horizontal.15" type="SUMO_DEFAULT_TYPE" depart="250.00" arrival="564.00">
        <route edges="2fi 2si 1o 1fi 1si 2o 2fi"/>
    </vehicle>

    <vehicle id="horizontal.16" type="SUMO_DEFAULT_TYPE" depart="260.00" arrival="566.00">
        <route edges="2fi 2si 1o 1fi 1si 2o 2fi"/>
    </vehicle>

    <vehicle id="horizontal.17" type="SUMO_DEFAULT_TYPE" depart="270.00" arrival="568.00">
        <route edges="2fi 2si 1o 1fi 1si 2o 2fi"/>
    </vehicle>

    <vehicle id="horizontal.18" type="SUMO_DEFAULT_TYPE" depart="280.00" arrival="570.00">
        <route edges="2fi 2si 1o 1fi 1si 2o 2fi"/>
    </vehicle>

    <vehicle id="vertical.17" type="SUMO_DEFAULT_TYPE" depart="270.00" arrival="584.00">
        <route edges="3fi 3si 4o 4fi 4si 3o 3fi"/>
    </vehicle>

    <vehicle id="vertical.18" type="SUMO_DEFAULT_TYPE" depart="280.00" arrival="586.00">
        <route edges="3fi 3si 4o 4fi 4si 3o 3fi"/>
    </vehicle>

    <vehicle id="vertical.19" type="SUMO_DEFAULT_TYPE" depart="290.00" arrival="588.00">
        <route edges="3fi 3si 4o 4fi 4si 3o 3fi"/>
    </vehicle>

    <vehicle id="vertical.20" type="SUMO_DEFAULT_TYPE" depart="300.00" arrival="590.00">
        <route edges="3fi 3si 4o 4fi 4si 3o 3fi"/>
    </vehicle>

    <vehicle id="vertical.21" type="SUMO_DEFAULT_TYPE" depart="310.00" arrival="592.00">
        <route edges="3fi 3si 4o 4fi 4si 3o 3fi"/>
    </vehicle>

    <vehicle id="vertical.22" type="SUMO_DEFAULT_TYPE" depart="320.00" arrival="594.00">
        <route edges="3fi 3si 4o 4fi 4si 3o 3fi"/>
    </vehicle>

    <vehicle id="vertical.23" type="SUMO_DEFAULT_TYPE" depart="330.00" arrival="596.00">
        <route edges="3fi 3si 4o 4fi 4si 3o 3fi"/>
    </vehicle>

    <vehicle id="vertical.24" type="SUMO_DEFAULT_TYPE" depart="340.00" arrival="598.00">
        <route edges="3fi 3si 4o 4fi 4si 3o 3fi"/>
    </vehicle>

    <vehicle id="vertical.25" type="SUMO_DEFAULT_TYPE" depart="350.00" arrival="600.00">
        <route edges="3fi 3si 4o 4fi 4si 3o 3fi"/>
    </vehicle>

    <vehicle id="always_right.1" type="SUMO_DEFAULT_TYPE" depart="110.00" arrival="615.00">
        <route edges="1fi 1si 4o 4fi 4si 2o 2fi 2si 3o 3fi 3si 1o 1fi"/>
    </vehicle>

    <vehicle id="always_right.2" type="SUMO_DEFAULT_TYPE" depart="120.00" arrival="617.00">
        <route edges="1fi 1si 4o 4fi 4si 2o 2fi 2si 3o 3fi 3si 1o 1fi"/>
    </vehicle>

    <vehicle id="always_right.3" type="SUMO_DEFAULT_TYPE" depart="130.00" arrival="618.00">
        <route edges="1fi 1si 4o 4fi 4si 2o 2fi 2si 3o 3fi 3si 1o 1fi"/>
    </vehicle>

    <vehicle id="horizontal.19" type="SUMO_DEFAULT_TYPE" depart="290.00" arrival="629.00">
        <route edges="2fi 2si 1o 1fi 1si 2o 2fi"/>
    </vehicle>

    <vehicle id="horizontal.20" type="SUMO_DEFAULT_TYPE" depart="300.00" arrival="631.00">
        <route edges="2fi 2si 1o 1fi 1si 2o 2fi"/>
    </vehicle>

    <vehicle id="always_right.4" type="SUMO_DEFAULT_TYPE" depart="140.00" arrival="705.00">
        <route edges="1fi 1si 4o 4fi 4si 2o 2fi 2si 3o 3fi 3si 1o 1fi"/>
    </vehicle>

    <vehicle id="always_right.5" type="SUMO_DEFAULT_TYPE" depart="150.00" arrival="709.00">
        <route edges="1fi 1si 4o 4fi 4si 2o 2fi 2si 3o 3fi 3si 1o 1fi"/>
    </vehicle>

    <vehicle id="always_right.6" type="SUMO_DEFAULT_TYPE" depart="160.00" arrival="711.00">
        <route edges="1fi 1si 4o 4fi 4si 2o 2fi 2si 3o 3fi 3si 1o 1fi"/>
    </vehicle>

    <vehicle id="horizontal.21" type="SUMO_DEFAULT_TYPE" depart="310.00" arrival="719.00">
        <route edges="2fi 2si 1o 1fi 1si 2o 2fi"/>
    </vehicle>

    <vehicle id="horizontal.22" type="SUMO_DEFAULT_TYPE" depart="320.00" arrival="742.00">
        <route edges="2fi 2si 1o 1fi 1si 2o 2fi"/>
    </vehicle>

    <vehicle id="horizontal.23" type="SUMO_DEFAULT_TYPE" depart="330.00" arrival="744.00">
        <route edges="2fi 2si 1o 1fi 1si 2o 2fi"/>
    </vehicle>

    <vehicle id="horizontal.24" type="SUMO_DEFAULT_TYPE" depart="340.00" arrival="750.00">
        <route edges="2fi 2si 1o 1fi 1si 2o 2fi"/>
    </vehicle>

    <vehicle id="horizontal.25" type="SUMO_DEFAULT_TYPE" depart="350.00" arrival="752.00">
        <route edges="2fi 2si 1o 1fi 1si 2o 2fi"/>
    </vehicle>

    <vehicle id="vertical.26" type="SUMO_DEFAULT_TYPE" depart="360.00" arrival="764.00">
        <route edges="3fi 3si 4o 4fi 4si 3o 3fi"/>
    </vehicle>

    <vehicle id="vertical.27" type="SUMO_DEFAULT_TYPE" depart="370.00" arrival="766.00">
        <route edges="3fi 3si 4o 4fi 4si 3o 3fi"/>
    </vehicle>

    <vehicle id="vertical.28" type="SUMO_DEFAULT_TYPE" depart="380.00" arrival="768.00">
        <route edges="3fi 3si 4o 4fi 4si 3o 3fi"/>
    </vehicle>

    <vehicle id="always_right.7" type="SUMO_DEFAULT_TYPE" depart="170.00" arrival="786.00">
        <route edges="1fi 1si 4o 4fi 4si 2o 2fi 2si 3o 3fi 3si 1o 1fi"/>
    </vehicle>

    <vehicle id="always_right.8" type="SUMO_DEFAULT_TYPE" depart="180.00" arrival="787.00">
        <route edges="1fi 1si 4o 4fi 4si 2o 2fi 2si 3o 3fi 3si 1o 1fi"/>
    </vehicle>

    <vehicle id="always_right.9" type="SUMO_DEFAULT_TYPE" depart="190.00" arrival="789.00">
        <route edges="1fi 1si 4o 4fi 4si 2o 2fi 2si 3o 3fi 3si 1o 1fi"/>
    </vehicle>

    <vehicle id="horizontal.26" type="SUMO_DEFAULT_TYPE" depart="360.00" arrival="809.00">
        <route edges="2fi 2si 1o 1fi 1si 2o 2fi"/>
    </vehicle>

    <vehicle id="horizontal.27" type="SUMO_DEFAULT_TYPE" depart="370.00" arrival="811.00">
        <route edges="2fi 2si 1o 1fi 1si 2o 2fi"/>
    </vehicle>

    <vehicle id="horizontal.28" type="SUMO_DEFAULT_TYPE" depart="380.00" arrival="813.00">
        <route edges="2fi 2si 1o 1fi 1si 2o 2fi"/>
    </vehicle>

    <vehicle id="horizontal.29" type="SUMO_DEFAULT_TYPE" depart="390.00" arrival="837.00">
        <route edges="2fi 2si 1o 1fi 1si 2o 2fi"/>
    </vehicle>

    <vehicle id="vertical.29" type="SUMO_DEFAULT_TYPE" depart="390.00" arrival="854.00">
        <route edges="3fi 3si 4o 4fi 4si 3o 3fi"/>
    </vehicle>

    <vehicle id="vertical.30" type="SUMO_DEFAULT_TYPE" depart="400.00" arrival="856.00">
        <route edges="3fi 3si 4o 4fi 4si 3o 3fi"/>
    </vehicle>

    <vehicle id="vertical.31" type="SUMO_DEFAULT_TYPE" depart="410.00" arrival="858.00">
        <route edges="3fi 3si 4o 4fi 4si 3o 3fi"/>
    </vehicle>

    <vehicle id="vertical.32" type="SUMO_DEFAULT_TYPE" depart="420.00" arrival="860.00">
        <route edges="3fi 3si 4o 4fi 4si 3o 3fi"/>
    </vehicle>

    <vehicle id="vertical.33" type="SUMO_DEFAULT_TYPE" depart="430.00" arrival="862.00">
        <route edges="3fi 3si 4o 4fi 4si 3o 3fi"/>
    </vehicle>

    <vehicle id="vertical.34" type="SUMO_DEFAULT_TYPE" depart="440.00" arrival="864.00">
        <route edges="3fi 3si 4o 4fi 4si 3o 3fi"/>
    </vehicle>

    <vehicle id="vertical.35" type="SUMO_DEFAULT_TYPE" depart="450.00" arrival="866.00">
        <route edges="3fi 3si 4o 4fi 4si 3o 3fi"/>
    </vehicle>

    <vehicle id="vertical.36" type="SUMO_DEFAULT_TYPE" depart="460.00" arrival="868.00">
        <route edges="3fi 3si 4o 4fi 4si 3o 3fi"/>
    </vehicle>

    <vehicle id="vertical.37" type="SUMO_DEFAULT_TYPE" depart="470.00" arrival="870.00">
        <route edges="3fi 3si 4o 4fi 4si 3o 3fi"/>
    </vehicle>

    <vehicle id="always_right.10" type="SUMO_DEFAULT_TYPE" depart="200.00" arrival="874.00">
        <route edges="1fi 1si 4o 4fi 4si 2o 2fi 2si 3o 3fi 3si 1o 1fi"/>
    </vehicle>

    <vehicle id="always_right.11" type="SUMO_DEFAULT_TYPE" depart="210.00" arrival="875.00">
        <route edges="1fi 1si 4o 4fi 4si 2o 2fi 2si 3o 3fi 3si 1o 1fi"/>
    </vehicle>

    <vehicle id="always_right.12" type="SUMO_DEFAULT_TYPE" depart="220.00" arrival="886.00">
        <route edges="1fi 1si 4o 4fi 4si 2o 2fi 2si 3o 3fi 3si 1o 1fi"/>
    </vehicle>

    <vehicle id="always_left.0" type="SUMO_DEFAULT_TYPE" depart="100.00" arrival="899.00">
        <route edges="3fi 3si 2o 2fi 2si 4o 4fi 4si 1o 1fi 1si 3o 3fi"/>
    </vehicle>

    <vehicle id="always_left.1" type="SUMO_DEFAULT_TYPE" depart="110.00" arrival="901.00">
        <route edges="3fi 3si 2o 2fi 2si 4o 4fi 4si 1o 1fi 1si 3o 3fi"/>
    </vehicle>

    <vehicle id="always_left.2" type="SUMO_DEFAULT_TYPE" depart="120.00" arrival="903.00">
        <route edges="3fi 3si 2o 2fi 2si 4o 4fi 4si 1o 1fi 1si 3o 3fi"/>
    </vehicle>

    <vehicle id="always_left.3" type="SUMO_DEFAULT_TYPE" depart="130.00" arrival="905.00">
        <route edges="3fi 3si 2o 2fi 2si 4o 4fi 4si 1o 1fi 1si 3o 3fi"/>
    </vehicle>

    <vehicle id="always_left.4" type="SUMO_DEFAULT_TYPE" depart="140.00" arrival="907.00">
        <route edges="3fi 3si 2o 2fi 2si 4o 4fi 4si 1o 1fi 1si 3o 3fi"/>
    </vehicle>

    <vehicle id="always_left.5" type="SUMO_DEFAULT_TYPE" depart="150.00" arrival="911.00">
        <route edges="3fi 3si 2o 2fi 2si 4o 4fi 4si 1o 1fi 1si 3o 3fi"/>
    </vehicle>

    <vehicle id="always_left.6" type="SUMO_DEFAULT_TYPE" depart="160.00" arrival="913.00">
        <route edges="3fi 3si 2o 2fi 2si 4o 4fi 4si 1o 1fi 1si 3o 3fi"/>
    </vehicle>

    <vehicle id="always_left.7" type="SUMO_DEFAULT_TYPE" depart="170.00" arrival="915.00">
        <route edges="3fi 3si 2o 2fi 2si 4o 4fi 4si 1o 1fi 1si 3o 3fi"/>
    </vehicle>

    <vehicle id="horizontal.30" type="SUMO_DEFAULT_TYPE" depart="400.00" arrival="923.00">
        <route edges="2fi 2si 1o 1fi 1si 2o 2fi"/>
    </vehicle>

    <vehicle id="vertical.38" type="SUMO_DEFAULT_TYPE" depart="480.00" arrival="944.00">
        <route edges="3fi 3si 4o 4fi 4si 3o 3fi"/>
    </vehicle>

    <vehicle id="vertical.39" type="SUMO_DEFAULT_TYPE" depart="490.00" arrival="946.00">
        <route edges="3fi 3si 4o 4fi 4si 3o 3fi"/>
    </vehicle>

    <vehicle id="vertical.40" type="SUMO_DEFAULT_TYPE" depart="500.00" arrival="948.00">
        <route edges="3fi 3si 4o 4fi 4si 3o 3fi"/>
    </vehicle>

    <vehicle id="vertical.41" type="SUMO_DEFAULT_TYPE" depart="510.00" arrival="950.00">
        <route edges="3fi 3si 4o 4fi 4si 3o 3fi"/>
    </vehicle>

    <vehicle id="vertical.42" type="SUMO_DEFAULT_TYPE" depart="520.00" arrival="952.00">
        <route edges="3fi 3si 4o 4fi 4si 3o 3fi"/>
    </vehicle>

    <vehicle id="vertical.43" type="SUMO_DEFAULT_TYPE" depart="530.00" arrival="954.00">
        <route edges="3fi 3si 4o 4fi 4si 3o 3fi"/>
    </vehicle>

    <vehicle id="vertical.44" type="SUMO_DEFAULT_TYPE" depart="540.00" arrival="956.00">
        <route edges="3fi 3si 4o 4fi 4si 3o 3fi"/>
    </vehicle>

    <vehicle id="vertical.45" type="SUMO_DEFAULT_TYPE" depart="550.00" arrival="958.00">
        <route edges="3fi 3si 4o 4fi 4si 3o 3fi"/>
    </vehicle>

    <vehicle id="vertical.46" type="SUMO_DEFAULT_TYPE" depart="560.00" arrival="960.00">
        <route edges="3fi 3si 4o 4fi 4si 3o 3fi"/>
    </vehicle>

    <vehicle id="always_right.13" type="SUMO_DEFAULT_TYPE" depart="230.00" arrival="976.00">
        <route edges="1fi 1si 4o 4fi 4si 2o 2fi 2si 3o 3fi 3si 1o 1fi"/>
    </vehicle>

    <vehicle id="always_right.14" type="SUMO_DEFAULT_TYPE" depart="240.00" arrival="980.00">
        <route edges="1fi 1si 4o 4fi 4si 2o 2fi 2si 3o 3fi 3si 1o 1fi"/>
    </vehicle>

    <vehicle id="always_right.15" type="SUMO_DEFAULT_TYPE" depart="250.00" arrival="981.00">
        <route edges="1fi 1si 4o 4fi 4si 2o 2fi 2si 3o 3fi 3si 1o 1fi"/>
    </vehicle>

    <vehicle id="horizontal.31" type="SUMO_DEFAULT_TYPE" depart="410.00" arrival="989.00">
        <route edges="2fi 2si 1o 1fi 1si 2o 2fi"/>
    </vehicle>

    <vehicle id="horizontal.32" type="SUMO_DEFAULT_TYPE" depart="420.00" arrival="1000.00">
        <route edges="2fi 2si 1o 1fi 1si 2o 2fi"/>
    </vehicle>

    <vehicle id="horizontal.33" type="SUMO_DEFAULT_TYPE" depart="430.00" arrival="1007.00">
        <route edges="2fi 2si 1o 1fi 1si 2o 2fi"/>
    </vehicle>

    <vehicle id="always_left.8" type="SUMO_DEFAULT_TYPE" depart="180.00" arrival="1015.00">
        <route edges="3fi 3si 2o 2fi 2si 4o 4fi 4si 1o 1fi 1si 3o 3fi"/>
    </vehicle>

    <vehicle id="always_left.9" type="SUMO_DEFAULT_TYPE" depart="190.00" arrival="1017.00">
        <route edges="3fi 3si 2o 2fi 2si 4o 4fi 4si 1o 1fi 1si 3o 3fi"/>
    </vehicle>

    <vehicle id="always_left.10" type="SUMO_DEFAULT_TYPE" depart="200.00" arrival="1019.00">
        <route edges="3fi 3si 2o 2fi 2si 4o 4fi 4si 1o 1fi 1si 3o 3fi"/>
    </vehicle>

    <vehicle id="always_left.11" type="SUMO_DEFAULT_TYPE" depart="210.00" arrival="1021.00">
        <route edges="3fi 3si 2o 2fi 2si 4o 4fi 4si 1o 1fi 1si 3o 3fi"/>
    </vehicle>

    <vehicle id="always_left.12" type="SUMO_DEFAULT_TYPE" depart="220.00" arrival="1023.00">
        <route edges="3fi 3si 2o 2fi 2si 4o 4fi 4si 1o 1fi 1si 3o 3fi"/>
    </vehicle>

    <vehicle id="vertical.47" type="SUMO_DEFAULT_TYPE" depart="570.00" arrival="1034.00">
        <route edges="3fi 3si 4o 4fi 4si 3o 3fi"/>
    </vehicle>

    <vehicle id="vertical.48" type="SUMO_DEFAULT_TYPE" depart="580.00" arrival="1036.00">
        <route edges="3fi 3si 4o 4fi 4si 3o 3fi"/>
    </vehicle>

    <vehicle id="vertical.49" type="SUMO_DEFAULT_TYPE" depart="590.00" arrival="1038.00">
        <route edges="3fi 3si 4o 4fi 4si 3o 3fi"/>
    </vehicle>

    <vehicle id="always_right.16" type="SUMO_DEFAULT_TYPE" depart="260.00" arrival="1054.00">
        <route edges="1fi 1si 4o 4fi 4si 2o 2fi 2si 3o 3fi 3si 1o 1fi"/>
    </vehicle>

    <vehicle id="vertical.50" type="SUMO_DEFAULT_TYPE" depart="600.00" arrival="1061.00">
        <route edges="3fi 3si 4o 4fi 4si 3o 3fi"/>
    </vehicle>

    <vehicle id="vertical.51" type="SUMO_DEFAULT_TYPE" depart="610.00" arrival="1062.00">
        <route edges="3fi 3si 4o 4fi 4si 3o 3fi"/>
    </vehicle>

    <vehicle id="vertical.52" type="SUMO_DEFAULT_TYPE" depart="620.00" arrival="1064.00">
        <route edges="3fi 3si 4o 4fi 4si 3o 3fi"/>
    </vehicle>

    <vehicle id="vertical.53" type="SUMO_DEFAULT_TYPE" depart="630.00" arrival="1065.00">
        <route edges="3fi 3si 4o 4fi 4si 3o 3fi"/>
    </vehicle>

    <vehicle id="always_right.17" type="SUMO_DEFAULT_TYPE" depart="270.00" arrival="1068.00">
        <route edges="1fi 1si 4o 4fi 4si 2o 2fi 2si 3o 3fi 3si 1o 1fi"/>
    </vehicle>

    <vehicle id="always_left.13" type="SUMO_DEFAULT_TYPE" depart="230.00" arrival="1079.00">
        <route edges="3fi 3si 2o 2fi 2si 4o 4fi 4si 1o 1fi 1si 3o 3fi"/>
    </vehicle>

    <vehicle id="always_left.14" type="SUMO_DEFAULT_TYPE" depart="240.00" arrival="1081.00">
        <route edges="3fi 3si 2o 2fi 2si 4o 4fi 4si 1o 1fi 1si 3o 3fi"/>
    </vehicle>

    <vehicle id="always_left.15" type="SUMO_DEFAULT_TYPE" depart="250.00" arrival="1083.00">
        <route edges="3fi 3si 2o 2fi 2si 4o 4fi 4si 1o 1fi 1si 3o 3fi"/>
    </vehicle>

    <vehicle id="horizontal.34" type="SUMO_DEFAULT_TYPE" depart="440.00" arrival="1095.00">
        <route edges="2fi 2si 1o 1fi 1si 2o 2fi"/>
    </vehicle>

    <vehicle id="horizontal.35" type="SUMO_DEFAULT_TYPE" depart="450.00" arrival="1097.00">
        <route edges="2fi 2si 1o 1fi 1si 2o 2fi"/>
    </vehicle>

    <vehicle id="horizontal.36" type="SUMO_DEFAULT_TYPE" depart="460.00" arrival="1101.00">
        <route edges="2fi 2si 1o 1fi 1si 2o 2fi"/>
    </vehicle>

    <vehicle id="horizontal.37" type="SUMO_DEFAULT_TYPE" depart="470.00" arrival="1103.00">
        <route edges="2fi 2si 1o 1fi 1si 2o 2fi"/>
    </vehicle>

    <vehicle id="horizontal.38" type="SUMO_DEFAULT_TYPE" depart="480.00" arrival="1105.00">
        <route edges="2fi 2si 1o 1fi 1si 2o 2fi"/>
    </vehicle>

    <vehicle id="horizontal.39" type="SUMO_DEFAULT_TYPE" depart="490.00" arrival="1107.00">
        <route edges="2fi 2si 1o 1fi 1si 2o 2fi"/>
    </vehicle>

    <vehicle id="horizontal.40" type="SUMO_DEFAULT_TYPE" depart="500.00" arrival="1109.00">
        <route edges="2fi 2si 1o 1fi 1si 2o 2fi"/>
    </vehicle>

    <vehicle id="horizontal.41" type="SUMO_DEFAULT_TYPE" depart="510.00" arrival="1111.00">
        <route edges="2fi 2si 1o 1fi 1si 2o 2fi"/>
    </vehicle>

    <vehicle id="vertical.54" type="SUMO_DEFAULT_TYPE" depart="640.00" arrival="1157.00">
        <route edges="3fi 3si 4o 4fi 4si 3o 3fi"/>
    </vehicle>

    <vehicle id="vertical.55" type="SUMO_DEFAULT_TYPE" depart="650.00" arrival="1158.00">
        <route edges="3fi 3si 4o 4fi 4si 3o 3fi"/>
    </vehicle>

    <vehicle id="always_right.18" type="SUMO_DEFAULT_TYPE" depart="280.00" arrival="1159.00">
        <route edges="1fi 1si 4o 4fi 4si 2o 2fi 2si 3o 3fi 3si 1o 1fi"/>
    </vehicle>

    <vehicle id="always_right.19" type="SUMO_DEFAULT_TYPE" depart="290.00" arrival="1161.00">
        <route edges="1fi 1si 4o 4fi 4si 2o 2fi 2si 3o 3fi 3si 1o 1fi"/>
    </vehicle>

    <vehicle id="horizontal.42" type="SUMO_DEFAULT_TYPE" depart="520.00" arrival="1169.00">
        <route edges="2fi 2si 1o 1fi 1si 2o 2fi"/>
    </vehicle>

    <vehicle id="horizontal.43" type="SUMO_DEFAULT_TYPE" depart="530.00" arrival="1171.00">
        <route edges="2fi 2si 1o 1fi 1si 2o 2fi"/>
    </vehicle>

    <vehicle id="always_left.16" type="SUMO_DEFAULT_TYPE" depart="260.00" arrival="1182.00">
        <route edges="3fi 3si 2o 2fi 2si 4o 4fi 4si 1o 1fi 1si 3o 3fi"/>
    </vehicle>

    <vehicle id="horizontal.44" type="SUMO_DEFAULT_TYPE" depart="540.00" arrival="1199.00">
        <route edges="2fi 2si 1o 1fi 1si 2o 2fi"/>
    </vehicle>

    <vehicle id="horizontal.45" type="SUMO_DEFAULT_TYPE" depart="550.00" arrival="1203.00">
        <route edges="2fi 2si 1o 1fi 1si 2o 2fi"/>
    </vehicle>

    <vehicle id="always_right.20" type="SUMO_DEFAULT_TYPE" depart="300.00" arrival="1220.00">
        <route edges="1fi 1si 4o 4fi 4si 2o 2fi 2si 3o 3fi 3si 1o 1fi"/>
    </vehicle>

    <vehicle id="horizontal.46" type="SUMO_DEFAULT_TYPE" depart="560.00" arrival="1259.00">
        <route edges="2fi 2si 1o 1fi 1si 2o 2fi"/>
    </vehicle>

    <vehicle id="horizontal.47" type="SUMO_DEFAULT_TYPE" depart="570.00" arrival="1261.00">
        <route edges="2fi 2si 1o 1fi 1si 2o 2fi"/>
    </vehicle>

    <vehicle id="horizontal.48" type="SUMO_DEFAULT_TYPE" depart="580.00" arrival="1263.00">
        <route edges="2fi 2si 1o 1fi 1si 2o 2fi"/>
    </vehicle>

    <vehicle id="horizontal.49" type="SUMO_DEFAULT_TYPE" depart="590.00" arrival="1265.00">
        <route edges="2fi 2si 1o 1fi 1si 2o 2fi"/>
    </vehicle>

    <vehicle id="horizontal.50" type="SUMO_DEFAULT_TYPE" depart="600.00" arrival="1277.00">
        <route edges="2fi 2si 1o 1fi 1si 2o 2fi"/>
    </vehicle>

    <vehicle id="horizontal.51" type="SUMO_DEFAULT_TYPE" depart="610.00" arrival="1279.00">
        <route edges="2fi 2si 1o 1fi 1si 2o 2fi"/>
    </vehicle>

    <vehicle id="vertical.56" type="SUMO_DEFAULT_TYPE" depart="660.00" arrival="1320.00">
        <route edges="3fi 3si 4o 4fi 4si 3o 3fi"/>
    </vehicle>

    <vehicle id="always_left.17" type="SUMO_DEFAULT_TYPE" depart="270.00" arrival="1349.00">
        <route edges="3fi 3si 2o 2fi 2si 4o 4fi 4si 1o 1fi 1si 3o 3fi"/>
    </vehicle>

    <vehicle id="always_left.18" type="SUMO_DEFAULT_TYPE" depart="280.00" arrival="1367.00">
        <route edges="3fi 3si 2o 2fi 2si 4o 4fi 4si 1o 1fi 1si 3o 3fi"/>
    </vehicle>

    <vehicle id="always_left.19" type="SUMO_DEFAULT_TYPE" depart="290.00" arrival="1369.00">
        <route edges="3fi 3si 2o 2fi 2si 4o 4fi 4si 1o 1fi 1si 3o 3fi"/>
    </vehicle>

    <vehicle id="always_left.20" type="SUMO_DEFAULT_TYPE" depart="300.00" arrival="1371.00">
        <route edges="3fi 3si 2o 2fi 2si 4o 4fi 4si 1o 1fi 1si 3o 3fi"/>
    </vehicle>

    <vehicle id="always_left.21" type="SUMO_DEFAULT_TYPE" depart="310.00" arrival="1373.00">
        <route edges="3fi 3si 2o 2fi 2si 4o 4fi 4si 1o 1fi 1si 3o 3fi"/>
    </vehicle>

    <vehicle id="always_left.22" type="SUMO_DEFAULT_TYPE" depart="320.00" arrival="1375.00">
        <route edges="3fi 3si 2o 2fi 2si 4o 4fi 4si 1o 1fi 1si 3o 3fi"/>
    </vehicle>

    <vehicle id="always_left.23" type="SUMO_DEFAULT_TYPE" depart="330.00" arrival="1380.00">
        <route edges="3fi 3si 2o 2fi 2si 4o 4fi 4si 1o 1fi 1si 3o 3fi"/>
    </vehicle>

    <vehicle id="always_left.24" type="SUMO_DEFAULT_TYPE" depart="340.00" arrival="1382.00">
        <route edges="3fi 3si 2o 2fi 2si 4o 4fi 4si 1o 1fi 1si 3o 3fi"/>
    </vehicle>

    <vehicle id="vertical.57" type="SUMO_DEFAULT_TYPE" depart="670.00" arrival="1394.00">
        <route edges="3fi 3si 4o 4fi 4si 3o 3fi"/>
    </vehicle>

    <vehicle id="vertical.58" type="SUMO_DEFAULT_TYPE" depart="680.00" arrival="1396.00">
        <route edges="3fi 3si 4o 4fi 4si 3o 3fi"/>
    </vehicle>

    <vehicle id="vertical.59" type="SUMO_DEFAULT_TYPE" depart="690.00" arrival="1398.00">
        <route edges="3fi 3si 4o 4fi 4si 3o 3fi"/>
    </vehicle>

    <vehicle id="vertical.60" type="SUMO_DEFAULT_TYPE" depart="700.00" arrival="1400.00">
        <route edges="3fi 3si 4o 4fi 4si 3o 3fi"/>
    </vehicle>

    <vehicle id="vertical.61" type="SUMO_DEFAULT_TYPE" depart="710.00" arrival="1402.00">
        <route edges="3fi 3si 4o 4fi 4si 3o 3fi"/>
    </vehicle>

    <vehicle id="vertical.62" type="SUMO_DEFAULT_TYPE" depart="720.00" arrival="1404.00">
        <route edges="3fi 3si 4o 4fi 4si 3o 3fi"/>
    </vehicle>

    <vehicle id="vertical.63" type="SUMO_DEFAULT_TYPE" depart="730.00" arrival="1406.00">
        <route edges="3fi 3si 4o 4fi 4si 3o 3fi"/>
    </vehicle>

    <vehicle id="vertical.64" type="SUMO_DEFAULT_TYPE" depart="740.00" arrival="1408.00">
        <route edges="3fi 3si 4o 4fi 4si 3o 3fi"/>
    </vehicle>

    <vehicle id="horizontal.52" type="SUMO_DEFAULT_TYPE" depart="620.00" arrival="1439.00">
        <route edges="2fi 2si 1o 1fi 1si 2o 2fi"/>
    </vehicle>

    <vehicle id="horizontal.53" type="SUMO_DEFAULT_TYPE" depart="630.00" arrival="1451.00">
        <route edges="2fi 2si 1o 1fi 1si 2o 2fi"/>
    </vehicle>

    <vehicle id="horizontal.54" type="SUMO_DEFAULT_TYPE" depart="640.00" arrival="1453.00">
        <route edges="2fi 2si 1o 1fi 1si 2o 2fi"/>
    </vehicle>

    <vehicle id="horizontal.55" type="SUMO_DEFAULT_TYPE" depart="650.00" arrival="1455.00">
        <route edges="2fi 2si 1o 1fi 1si 2o 2fi"/>
    </vehicle>

    <vehicle id="horizontal.56" type="SUMO_DEFAULT_TYPE" depart="660.00" arrival="1457.00">
        <route edges="2fi 2si 1o 1fi 1si 2o 2fi"/>
    </vehicle>

    <vehicle id="horizontal.57" type="SUMO_DEFAULT_TYPE" depart="670.00" arrival="1459.00">
        <route edges="2fi 2si 1o 1fi 1si 2o 2fi"/>
    </vehicle>

    <vehicle id="horizontal.58" type="SUMO_DEFAULT_TYPE" depart="680.00" arrival="1462.00">
        <route edges="2fi 2si 1o 1fi 1si 2o 2fi"/>
    </vehicle>

    <vehicle id="horizontal.59" type="SUMO_DEFAULT_TYPE" depart="690.00" arrival="1463.00">
        <route edges="2fi 2si 1o 1fi 1si 2o 2fi"/>
    </vehicle>

    <vehicle id="horizontal.60" type="SUMO_DEFAULT_TYPE" depart="700.00" arrival="1469.00">
        <route edges="2fi 2si 1o 1fi 1si 2o 2fi"/>
    </vehicle>

    <vehicle id="horizontal.61" type="SUMO_DEFAULT_TYPE" depart="710.00" arrival="1472.00">
        <route edges="2fi 2si 1o 1fi 1si 2o 2fi"/>
    </vehicle>

    <vehicle id="vertical.65" type="SUMO_DEFAULT_TYPE" depart="750.00" arrival="1484.00">
        <route edges="3fi 3si 4o 4fi 4si 3o 3fi"/>
    </vehicle>

    <vehicle id="vertical.66" type="SUMO_DEFAULT_TYPE" depart="760.00" arrival="1486.00">
        <route edges="3fi 3si 4o 4fi 4si 3o 3fi"/>
    </vehicle>

    <vehicle id="vertical.67" type="SUMO_DEFAULT_TYPE" depart="770.00" arrival="1488.00">
        <route edges="3fi 3si 4o 4fi 4si 3o 3fi"/>
    </vehicle>

    <vehicle id="vertical.68" type="SUMO_DEFAULT_TYPE" depart="780.00" arrival="1490.00">
        <route edges="3fi 3si 4o 4fi 4si 3o 3fi"/>
    </vehicle>

    <vehicle id="vertical.69" type="SUMO_DEFAULT_TYPE" depart="790.00" arrival="1492.00">
        <route edges="3fi 3si 4o 4fi 4si 3o 3fi"/>
    </vehicle>

    <vehicle id="vertical.70" type="SUMO_DEFAULT_TYPE" depart="800.00" arrival="1494.00">
        <route edges="3fi 3si 4o 4fi 4si 3o 3fi"/>
    </vehicle>
