<?xml version="1.0" encoding="UTF-8"?>

<!-- generated on 2025-02-28 12:01:38 by Eclipse SUMO sumo Version v1_22_0+0580-601ed0b1c21
This data file and the accompanying materials
are made available under the terms of the Eclipse Public License v2.0
which accompanies this distribution, and is available at
http://www.eclipse.org/legal/epl-v20.html
This file may also be made available under the following Secondary
Licenses when the conditions for such availability set forth in the Eclipse
Public License 2.0 are satisfied: GNU General Public License, version 2
or later which is available at
https://www.gnu.org/licenses/old-licenses/gpl-2.0-standalone.html
SPDX-License-Identifier: EPL-2.0 OR GPL-2.0-or-later
<sumoConfiguration xmlns:xsi="http://www.w3.org/2001/XMLSchema-instance" xsi:noNamespaceSchemaLocation="http://sumo.dlr.de/xsd/sumoConfiguration.xsd">

    <input>
        <net-file value="net.net.xml"/>
        <route-files value="input_routes.rou.xml"/>
        <additional-files value="input_additional.add.xml"/>
    </input>

    <output>
        <write-license value="true"/>
        <edgedata-output value="aggregated.xml"/>
    </output>

    <processing>
        <time-to-teleport value="400"/>
        <default.speeddev value="0"/>
    </processing>

    <report>
        <xml-validation value="never"/>
        <no-step-log value="true"/>
    </report>

</sumoConfiguration>
-->

<meandata xmlns:xsi="http://www.w3.org/2001/XMLSchema-instance" xsi:noNamespaceSchemaLocation="http://sumo.dlr.de/xsd/meandata_file.xsd">
    <interval begin="0.00" end="7522.00" id="DEFAULT_EDGEDATA">
        <edge id="E0" sampledSeconds="141304.72" traveltime="1834.65" overlapTraveltime="1858.01" density="93.93" laneDensity="46.96" occupancy="32.67" waitingTime="128130.00" timeLoss="140017.03" speed="0.11" speedRelative="0.01" departed="0" arrived="77" entered="231" left="154" laneChangedFrom="33" laneChangedTo="33"/>
        <edge id="E1" sampledSeconds="78268.55" traveltime="916.42" overlapTraveltime="1016.47" density="104.05" laneDensity="52.03" occupancy="33.76" waitingTime="72626.15" timeLoss="77674.83" speed="0.11" speedRelative="0.01" departed="77" arrived="0" entered="0" left="77" laneChangedFrom="25" laneChangedTo="25"/>
    </interval>
</meandata>
