<?xml version="1.0" encoding="UTF-8"?>

<!-- generated on 2025-01-07 00:03:39 by Eclipse SUMO sumo Version v1_21_0+1695-777ee0932d1
This data file and the accompanying materials
are made available under the terms of the Eclipse Public License v2.0
which accompanies this distribution, and is available at
http://www.eclipse.org/legal/epl-v20.html
This file may also be made available under the following Secondary
Licenses when the conditions for such availability set forth in the Eclipse
Public License 2.0 are satisfied: GNU General Public License, version 2
or later which is available at
https://www.gnu.org/licenses/old-licenses/gpl-2.0-standalone.html
SPDX-License-Identifier: EPL-2.0 OR GPL-2.0-or-later
<sumoConfiguration xmlns:xsi="http://www.w3.org/2001/XMLSchema-instance" xsi:noNamespaceSchemaLocation="http://sumo.dlr.de/xsd/sumoConfiguration.xsd">

    <input>
        <net-file value="net.net.xml"/>
        <route-files value="input_routes.rou.xml"/>
        <additional-files value="input_additional.add.xml"/>
    </input>

    <output>
        <write-license value="true"/>
        <edgedata-output value="aggregated.xml"/>
    </output>

    <processing>
        <time-to-teleport value="400"/>
        <default.speeddev value="0"/>
    </processing>

    <report>
        <xml-validation value="never"/>
        <no-step-log value="true"/>
    </report>

</sumoConfiguration>
-->

<meandata xmlns:xsi="http://www.w3.org/2001/XMLSchema-instance" xsi:noNamespaceSchemaLocation="http://sumo.dlr.de/xsd/meandata_file.xsd">
    <interval begin="0.00" end="7402.00" id="DEFAULT_EDGEDATA">
        <edge id="E0" sampledSeconds="140078.24" traveltime="1830.36" overlapTraveltime="1855.27" density="94.62" laneDensity="47.31" occupancy="32.95" waitingTime="127381.00" timeLoss="138800.78" speed="0.11" speedRelative="0.01" departed="0" arrived="76" entered="229" left="153" laneChangedFrom="36" laneChangedTo="36" teleported="1"/>
        <edge id="E1" sampledSeconds="79180.14" traveltime="934.72" overlapTraveltime="1028.31" density="106.97" laneDensity="53.49" occupancy="34.88" waitingTime="73247.00" timeLoss="78586.42" speed="0.10" speedRelative="0.01" departed="77" arrived="0" entered="0" left="77" laneChangedFrom="18" laneChangedTo="18"/>
    </interval>
</meandata>
