<?xml version="1.0"?>

<!-- generated on 10/29/08 15:14:03 by SUMO dfrouter Version dev-SVN-r6225
<configuration>

   <input>
      <net-file>input_tri.net.xml</net-file>
      <detector-files>input_tri.det.xml</detector-files>
      <detector-flow-files>input_tri_flows.txt</detector-flow-files>
   </input>

   <output>
      <routes-output>routes.rou.xml</routes-output>
      <emitters-output>emitters.add.xml</emitters-output>
   </output>

   <processing>
      <keep-longer-routes>true</keep-longer-routes>
      <emissions-only>true</emissions-only>
      <include-unused-routes>true</include-unused-routes>
      <scale>0.5</scale>
   </processing>

   <time>
      <end>60</end>
   </time>

</configuration>
-->

<additional>
   <emitter id="source_MQ_beg" pos="5.00" objectid="beg_0" friendly_pos="x" file="emitter_MQ_beg.def.xml"/>
</additional>
