<?xml version="1.0" encoding="UTF-8"?>

<!-- generated on 2022-08-09 18:29:19 by Eclipse SUMO sumo Version v1_14_1+0166-5f48fcf
<configuration xmlns:xsi="http://www.w3.org/2001/XMLSchema-instance" xsi:noNamespaceSchemaLocation="http://sumo.dlr.de/xsd/sumoConfiguration.xsd">

    <input>
        <net-file value="input_net4.net.xml"/>
        <route-files value="input_routes.rou.xml"/>
    </input>

    <output>
        <tripinfo-output value="tripinfo.xml"/>
        <vehroute-output value="vehroutes.xml"/>
    </output>

    <report>
        <no-step-log value="true"/>
    </report>

    <taxi_device>
        <device.taxi.dispatch-algorithm value="traci"/>
    </taxi_device>

    <traci_server>
        <remote-port value="51223"/>
    </traci_server>

</configuration>
-->

<tripinfos xmlns:xsi="http://www.w3.org/2001/XMLSchema-instance" xsi:noNamespaceSchemaLocation="http://sumo.dlr.de/xsd/tripinfo_file.xsd">
    <personinfo id="p.2" depart="0.00" type="DEFAULT_PEDTYPE">
        <ride waitingTime="31.00" vehicle="taxi_0" depart="31.00" arrival="125.00" arrivalPos="90.60" duration="94.00" routeLength="285.61" timeLoss="15.04"/>
    </personinfo>
    <personinfo id="p.3" depart="0.00" type="DEFAULT_PEDTYPE">
        <ride waitingTime="31.00" vehicle="taxi_0" depart="31.00" arrival="126.00" arrivalPos="90.60" duration="95.00" routeLength="285.61" timeLoss="15.04"/>
    </personinfo>
    <personinfo id="p.0" depart="0.00" type="DEFAULT_PEDTYPE">
        <ride waitingTime="42.00" vehicle="taxi_1" depart="42.00" arrival="133.00" arrivalPos="90.60" duration="91.00" routeLength="285.61" timeLoss="10.79"/>
    </personinfo>
    <personinfo id="p.1" depart="0.00" type="DEFAULT_PEDTYPE">
        <ride waitingTime="42.00" vehicle="taxi_1" depart="42.00" arrival="134.00" arrivalPos="90.60" duration="92.00" routeLength="285.61" timeLoss="10.79"/>
    </personinfo>
</tripinfos>
