<?xml version="1.0" encoding="UTF-8"?>

<!-- generated on Wed Oct 29 15:17:10 2014 by SUMO Version dev-SVN-r17217ID
<?xml version="1.0" encoding="UTF-8"?>

<configuration xmlns:xsi="http://www.w3.org/2001/XMLSchema-instance" xsi:noNamespaceSchemaLocation="http://sumo.dlr.de/xsd/sumoConfiguration.xsd">

    <input>
        <net-file value="net.net.xml"/>
        <additional-files value="input_routes.rou.xml,input_additional.add.xml"/>
    </input>

    <output>
        <tripinfo-output value="tripinfos.xml"/>
    </output>

    <report>
        <xml-validation value="never"/>
        <no-duration-log value="true"/>
        <no-step-log value="true"/>
    </report>

</configuration>
-->

<tripinfos xmlns:xsi="http://www.w3.org/2001/XMLSchema-instance" xsi:noNamespaceSchemaLocation="http://sumo.dlr.de/xsd/tripinfo_file.xsd">
    <tripinfo id="f1.0" depart="0.00" departLane="beg_0" departPos="5.10" departSpeed="0.00" departDelay="0.00" arrival="41.00" arrivalLane="end_0" arrivalPos="500.00" arrivalSpeed="27.80" duration="41.00" routeLength="994.90" waitSteps="0" timeLoss="4.85" rerouteNo="0" devices="tripinfo_f1.0" vType="DEFAULT_VEHTYPE" vaporized=""/>
</tripinfos>
