<?xml version="1.0" encoding="UTF-8"?>

<!-- generated on 2026-05-27T13:15:26.957675+01:00 by Eclipse SUMO sumo v1_27_0+0033-cf46830a21a
This data file and the accompanying materials
are made available under the terms of the Eclipse Public License v2.0
which accompanies this distribution, and is available at
http://www.eclipse.org/legal/epl-v20.html
This file may also be made available under the following Secondary
Licenses when the conditions for such availability set forth in the Eclipse
Public License 2.0 are satisfied: GNU General Public License, version 2
or later which is available at
https://www.gnu.org/licenses/old-licenses/gpl-2.0-standalone.html
SPDX-License-Identifier: EPL-2.0 OR GPL-2.0-or-later
<sumoConfiguration xmlns:xsi="http://www.w3.org/2001/XMLSchema-instance" xsi:noNamespaceSchemaLocation="http://sumo.dlr.de/xsd/sumoConfiguration.xsd">

    <input>
        <net-file value="net.net.xml"/>
        <route-files value="input_routes.rou.xml"/>
        <additional-files value="input_additional.add.xml,input_additional2.add.xml"/>
    </input>

    <output>
        <write-license value="true"/>
        <tripinfo-output.write-unfinished value="true"/>
    </output>

    <time>
        <begin value="0"/>
        <end value="3000"/>
    </time>

    <processing>
        <default.departspeed value="0"/>
        <default.departlane value="first"/>
        <default.speeddev value="0"/>
    </processing>

    <report>
        <xml-validation value="never"/>
        <duration-log.statistics value="true"/>
        <no-step-log value="true"/>
    </report>

</sumoConfiguration>
-->

<meandata xmlns:xsi="http://www.w3.org/2001/XMLSchema-instance" xsi:noNamespaceSchemaLocation="http://sumo.dlr.de/xsd/meandata_file.xsd">
    <interval begin="0.00" end="60.00" id="dump_60">
        <edge id="1/1to2/1" sampledSeconds="901.83" traveltime="196.85" overlapTraveltime="193.56" density="15.13" overlapDensity="15.34" laneDensity="15.13" occupancy="7.62" waitingTime="448.00" timeLoss="667.70" speed="5.09" speedRelative="0.26" departed="60" arrived="0" entered="0" left="32" laneChangedFrom="0" laneChangedTo="0" flow="271.18"/>
        <edge id="2/1to3/1" sampledSeconds="869.83" traveltime="52.65" overlapTraveltime="52.91" density="14.79" overlapDensity="14.79" laneDensity="14.79" occupancy="7.35" waitingTime="0.00" timeLoss="43.75" speed="18.61" speedRelative="0.95" departed="0" arrived="0" entered="32" left="2" laneChangedFrom="0" laneChangedTo="0" flow="990.85"/>
        <edge id="3/1to4/1" sampledSeconds="3.04" traveltime="51.40" overlapTraveltime="51.66" density="0.05" overlapDensity="0.05" laneDensity="0.05" occupancy="0.02" waitingTime="0.00" timeLoss="0.08" speed="19.06" speedRelative="0.97" departed="0" arrived="0" entered="2" left="0" laneChangedFrom="0" laneChangedTo="0" flow="3.55"/>
    </interval>
    <interval begin="60.00" end="120.00" id="dump_60">
        <edge id="1/1to2/1" sampledSeconds="2415.67" traveltime="152.03" overlapTraveltime="151.69" density="40.93" overlapDensity="41.09" laneDensity="40.93" occupancy="20.50" waitingTime="1307.00" timeLoss="1615.39" speed="6.49" speedRelative="0.33" departed="60" arrived="0" entered="0" left="35" laneChangedFrom="0" laneChangedTo="0" flow="949.69"/>
        <edge id="2/1to3/1" sampledSeconds="1834.46" traveltime="51.97" overlapTraveltime="52.23" density="31.04" overlapDensity="31.20" laneDensity="31.04" occupancy="15.52" waitingTime="0.00" timeLoss="69.52" speed="18.86" speedRelative="0.96" departed="0" arrived="0" entered="35" left="35" laneChangedFrom="0" laneChangedTo="0" flow="2107.35"/>
        <edge id="3/1to4/1" sampledSeconds="1095.57" traveltime="51.93" overlapTraveltime="52.20" density="18.61" overlapDensity="18.63" laneDensity="18.61" occupancy="9.27" waitingTime="0.00" timeLoss="40.79" speed="18.87" speedRelative="0.96" departed="0" arrived="0" entered="35" left="6" laneChangedFrom="0" laneChangedTo="0" flow="1263.98"/>
        <edge id="4/1to5/1" sampledSeconds="32.21" traveltime="51.64" overlapTraveltime="51.91" density="0.55" overlapDensity="0.55" laneDensity="0.55" occupancy="0.27" waitingTime="0.00" timeLoss="1.03" speed="18.98" speedRelative="0.97" departed="0" arrived="0" entered="6" left="0" laneChangedFrom="0" laneChangedTo="0" flow="37.42"/>
    </interval>
    <interval begin="120.00" end="180.00" id="dump_60">
        <edge id="1/1to2/1" sampledSeconds="3087.03" traveltime="109.04" overlapTraveltime="109.23" density="52.35" overlapDensity="52.50" laneDensity="52.35" occupancy="26.12" waitingTime="1297.00" timeLoss="1666.83" speed="9.02" speedRelative="0.46" departed="19" arrived="0" entered="0" left="36" laneChangedFrom="0" laneChangedTo="0" flow="1693.53"/>
        <edge id="2/1to3/1" sampledSeconds="1835.63" traveltime="51.95" overlapTraveltime="52.21" density="31.06" overlapDensity="31.22" laneDensity="31.06" occupancy="15.53" waitingTime="0.00" timeLoss="68.90" speed="18.86" speedRelative="0.96" departed="0" arrived="0" entered="35" left="35" laneChangedFrom="0" laneChangedTo="0" flow="2109.39"/>
        <edge id="3/1to4/1" sampledSeconds="1836.72" traveltime="51.95" overlapTraveltime="52.22" density="31.08" overlapDensity="31.24" laneDensity="31.08" occupancy="15.54" waitingTime="0.00" timeLoss="69.15" speed="18.86" speedRelative="0.96" departed="0" arrived="0" entered="35" left="35" laneChangedFrom="0" laneChangedTo="0" flow="2110.70"/>
        <edge id="4/1to5/1" sampledSeconds="1305.73" traveltime="51.85" overlapTraveltime="52.12" density="22.16" overlapDensity="22.21" laneDensity="22.16" occupancy="11.05" waitingTime="0.00" timeLoss="46.71" speed="18.90" speedRelative="0.96" departed="0" arrived="0" entered="34" left="10" laneChangedFrom="0" laneChangedTo="0" flow="1507.85"/>
        <edge id="5/1to6/1" sampledSeconds="96.86" traveltime="51.77" overlapTraveltime="52.04" density="1.65" overlapDensity="1.65" laneDensity="1.65" occupancy="0.81" waitingTime="0.00" timeLoss="3.33" speed="18.93" speedRelative="0.97" departed="0" arrived="0" entered="10" left="0" laneChangedFrom="0" laneChangedTo="0" flow="112.25"/>
    </interval>
    <interval begin="180.00" end="240.00" id="dump_60">
        <edge id="1/1to2/1" sampledSeconds="1716.28" traveltime="56.20" overlapTraveltime="56.46" density="29.02" overlapDensity="29.19" laneDensity="29.02" occupancy="14.45" waitingTime="1.00" timeLoss="188.66" speed="17.45" speedRelative="0.89" departed="22" arrived="0" entered="0" left="36" laneChangedFrom="0" laneChangedTo="0" flow="1822.03"/>
        <edge id="2/1to3/1" sampledSeconds="1893.67" traveltime="52.00" overlapTraveltime="52.26" density="32.05" overlapDensity="32.21" laneDensity="32.05" occupancy="16.02" waitingTime="0.00" timeLoss="72.80" speed="18.85" speedRelative="0.96" departed="0" arrived="0" entered="37" left="35" laneChangedFrom="0" laneChangedTo="0" flow="2174.46"/>
        <edge id="3/1to4/1" sampledSeconds="1832.77" traveltime="51.87" overlapTraveltime="52.13" density="31.01" overlapDensity="31.17" laneDensity="31.01" occupancy="15.51" waitingTime="0.00" timeLoss="66.07" speed="18.89" speedRelative="0.96" departed="0" arrived="0" entered="35" left="36" laneChangedFrom="0" laneChangedTo="0" flow="2109.25"/>
        <edge id="4/1to5/1" sampledSeconds="1841.75" traveltime="51.91" overlapTraveltime="52.18" density="31.17" overlapDensity="31.32" laneDensity="31.17" occupancy="15.58" waitingTime="0.00" timeLoss="68.00" speed="18.88" speedRelative="0.96" departed="0" arrived="0" entered="36" left="35" laneChangedFrom="0" laneChangedTo="0" flow="2117.92"/>
        <edge id="5/1to6/1" sampledSeconds="1483.02" traveltime="51.89" overlapTraveltime="52.16" density="25.16" overlapDensity="25.22" laneDensity="25.16" occupancy="12.56" waitingTime="0.00" timeLoss="54.15" speed="18.88" speedRelative="0.96" departed="0" arrived="0" entered="35" left="15" laneChangedFrom="0" laneChangedTo="0" flow="1710.16"/>
        <edge id="6/1to7/1" sampledSeconds="197.98" traveltime="51.79" overlapTraveltime="52.05" density="3.37" overlapDensity="3.37" laneDensity="3.37" occupancy="1.67" waitingTime="0.00" timeLoss="6.84" speed="18.92" speedRelative="0.97" departed="0" arrived="0" entered="15" left="0" laneChangedFrom="0" laneChangedTo="0" flow="229.38"/>
    </interval>
    <interval begin="240.00" end="300.00" id="dump_60">
        <edge id="1/1to2/1" sampledSeconds="1319.37" traveltime="56.43" overlapTraveltime="56.69" density="22.34" overlapDensity="22.44" laneDensity="22.34" occupancy="11.05" waitingTime="1.00" timeLoss="149.92" speed="17.37" speedRelative="0.89" departed="23" arrived="0" entered="0" left="23" laneChangedFrom="0" laneChangedTo="0" flow="1396.39"/>
        <edge id="2/1to3/1" sampledSeconds="1516.90" traveltime="51.96" overlapTraveltime="52.23" density="25.64" overlapDensity="25.80" laneDensity="25.64" occupancy="12.83" waitingTime="0.00" timeLoss="57.35" speed="18.86" speedRelative="0.96" departed="0" arrived="0" entered="23" left="35" laneChangedFrom="0" laneChangedTo="0" flow="1740.86"/>
        <edge id="3/1to4/1" sampledSeconds="1890.15" traveltime="51.94" overlapTraveltime="52.21" density="31.99" overlapDensity="32.15" laneDensity="31.99" occupancy="15.99" waitingTime="0.00" timeLoss="70.83" speed="18.87" speedRelative="0.96" departed="0" arrived="0" entered="35" left="35" laneChangedFrom="0" laneChangedTo="0" flow="2172.30"/>
        <edge id="4/1to5/1" sampledSeconds="1832.25" traveltime="51.88" overlapTraveltime="52.14" density="31.00" overlapDensity="31.16" laneDensity="31.00" occupancy="15.50" waitingTime="0.00" timeLoss="66.39" speed="18.89" speedRelative="0.96" departed="0" arrived="0" entered="36" left="36" laneChangedFrom="0" laneChangedTo="0" flow="2108.14"/>
        <edge id="5/1to6/1" sampledSeconds="1844.20" traveltime="51.89" overlapTraveltime="52.16" density="31.21" overlapDensity="31.37" laneDensity="31.21" occupancy="15.60" waitingTime="0.00" timeLoss="67.38" speed="18.88" speedRelative="0.96" departed="0" arrived="0" entered="36" left="35" laneChangedFrom="0" laneChangedTo="0" flow="2121.60"/>
        <edge id="6/1to7/1" sampledSeconds="1624.56" traveltime="51.89" overlapTraveltime="52.16" density="27.54" overlapDensity="27.63" laneDensity="27.54" occupancy="13.75" waitingTime="0.00" timeLoss="59.28" speed="18.88" speedRelative="0.96" departed="0" arrived="0" entered="35" left="20" laneChangedFrom="0" laneChangedTo="0" flow="1872.33"/>
        <edge id="7/1to8/1" sampledSeconds="335.84" traveltime="51.75" overlapTraveltime="52.02" density="5.71" overlapDensity="5.71" laneDensity="5.71" occupancy="2.83" waitingTime="0.00" timeLoss="11.38" speed="18.94" speedRelative="0.97" departed="0" arrived="0" entered="20" left="0" laneChangedFrom="0" laneChangedTo="0" flow="389.37"/>
    </interval>
    <interval begin="300.00" end="360.00" id="dump_60">
        <edge id="1/1to2/1" sampledSeconds="1321.62" traveltime="56.38" overlapTraveltime="56.64" density="22.37" overlapDensity="22.48" laneDensity="22.37" occupancy="11.08" waitingTime="3.00" timeLoss="149.05" speed="17.39" speedRelative="0.89" departed="23" arrived="0" entered="0" left="24" laneChangedFrom="0" laneChangedTo="0" flow="1399.82"/>
        <edge id="2/1to3/1" sampledSeconds="1217.47" traveltime="51.74" overlapTraveltime="52.01" density="20.60" overlapDensity="20.71" laneDensity="20.60" occupancy="10.30" waitingTime="0.00" timeLoss="41.05" speed="18.94" speedRelative="0.97" departed="0" arrived="0" entered="24" left="23" laneChangedFrom="0" laneChangedTo="0" flow="1404.74"/>
        <edge id="3/1to4/1" sampledSeconds="1435.36" traveltime="51.85" overlapTraveltime="52.12" density="24.26" overlapDensity="24.41" laneDensity="24.26" occupancy="12.14" waitingTime="0.00" timeLoss="51.40" speed="18.90" speedRelative="0.96" departed="0" arrived="0" entered="23" left="33" laneChangedFrom="0" laneChangedTo="0" flow="1650.75"/>
        <edge id="4/1to5/1" sampledSeconds="1875.91" traveltime="52.00" overlapTraveltime="52.27" density="31.74" overlapDensity="31.91" laneDensity="31.74" occupancy="15.87" waitingTime="0.00" timeLoss="72.26" speed="18.85" speedRelative="0.96" departed="0" arrived="0" entered="33" left="36" laneChangedFrom="0" laneChangedTo="0" flow="2153.49"/>
        <edge id="5/1to6/1" sampledSeconds="1834.70" traveltime="51.89" overlapTraveltime="52.16" density="31.05" overlapDensity="31.20" laneDensity="31.05" occupancy="15.52" waitingTime="0.00" timeLoss="67.04" speed="18.88" speedRelative="0.96" departed="0" arrived="0" entered="36" left="35" laneChangedFrom="0" laneChangedTo="0" flow="2110.61"/>
        <edge id="6/1to7/1" sampledSeconds="1844.12" traveltime="51.95" overlapTraveltime="52.21" density="31.21" overlapDensity="31.36" laneDensity="31.21" occupancy="15.60" waitingTime="0.00" timeLoss="69.30" speed="18.86" speedRelative="0.96" departed="0" arrived="0" entered="35" left="35" laneChangedFrom="0" laneChangedTo="0" flow="2119.20"/>
        <edge id="7/1to8/1" sampledSeconds="1728.09" traveltime="51.88" overlapTraveltime="52.15" density="29.28" overlapDensity="29.39" laneDensity="29.28" occupancy="14.63" waitingTime="0.00" timeLoss="62.83" speed="18.89" speedRelative="0.96" departed="0" arrived="0" entered="35" left="25" laneChangedFrom="0" laneChangedTo="0" flow="1990.93"/>
        <edge id="8/1to9/1" sampledSeconds="512.69" traveltime="51.79" overlapTraveltime="52.05" density="8.72" overlapDensity="8.72" laneDensity="8.72" occupancy="4.33" waitingTime="0.00" timeLoss="17.74" speed="18.92" speedRelative="0.97" departed="0" arrived="0" entered="24" left="0" laneChangedFrom="0" laneChangedTo="0" flow="593.97"/>
    </interval>
    <interval begin="360.00" end="420.00" id="dump_60">
        <edge id="1/1to2/1" sampledSeconds="1297.57" traveltime="56.48" overlapTraveltime="56.75" density="21.97" overlapDensity="22.07" laneDensity="21.97" occupancy="10.90" waitingTime="1.00" timeLoss="148.52" speed="17.36" speedRelative="0.89" departed="23" arrived="0" entered="0" left="23" laneChangedFrom="0" laneChangedTo="0" flow="1371.97"/>
        <edge id="2/1to3/1" sampledSeconds="1205.74" traveltime="51.70" overlapTraveltime="51.97" density="20.40" overlapDensity="20.51" laneDensity="20.40" occupancy="10.20" waitingTime="0.00" timeLoss="39.78" speed="18.95" speedRelative="0.97" departed="0" arrived="0" entered="23" left="24" laneChangedFrom="0" laneChangedTo="0" flow="1391.89"/>
        <edge id="3/1to4/1" sampledSeconds="1223.22" traveltime="51.66" overlapTraveltime="51.93" density="20.70" overlapDensity="20.80" laneDensity="20.70" occupancy="10.35" waitingTime="0.00" timeLoss="39.45" speed="18.97" speedRelative="0.97" departed="0" arrived="0" entered="24" left="23" laneChangedFrom="0" laneChangedTo="0" flow="1413.57"/>
        <edge id="4/1to5/1" sampledSeconds="1367.80" traveltime="51.82" overlapTraveltime="52.09" density="23.12" overlapDensity="23.26" laneDensity="23.12" occupancy="11.57" waitingTime="0.00" timeLoss="48.23" speed="18.91" speedRelative="0.96" departed="0" arrived="0" entered="23" left="31" laneChangedFrom="0" laneChangedTo="0" flow="1574.09"/>
        <edge id="5/1to6/1" sampledSeconds="1848.80" traveltime="52.00" overlapTraveltime="52.27" density="31.28" overlapDensity="31.44" laneDensity="31.28" occupancy="15.65" waitingTime="0.00" timeLoss="71.37" speed="18.84" speedRelative="0.96" departed="0" arrived="0" entered="31" left="36" laneChangedFrom="0" laneChangedTo="0" flow="2122.03"/>
        <edge id="6/1to7/1" sampledSeconds="1839.88" traveltime="51.92" overlapTraveltime="52.19" density="31.13" overlapDensity="31.29" laneDensity="31.13" occupancy="15.57" waitingTime="0.00" timeLoss="68.31" speed="18.87" speedRelative="0.96" departed="0" arrived="0" entered="36" left="35" laneChangedFrom="0" laneChangedTo="0" flow="2115.30"/>
        <edge id="7/1to8/1" sampledSeconds="1843.12" traveltime="51.89" overlapTraveltime="52.15" density="31.19" overlapDensity="31.35" laneDensity="31.19" occupancy="15.59" waitingTime="0.00" timeLoss="67.05" speed="18.89" speedRelative="0.96" departed="0" arrived="0" entered="35" left="35" laneChangedFrom="0" laneChangedTo="0" flow="2120.56"/>
        <edge id="8/1to9/1" sampledSeconds="1791.19" traveltime="51.81" overlapTraveltime="52.08" density="30.33" overlapDensity="30.46" laneDensity="30.33" occupancy="15.16" waitingTime="0.00" timeLoss="62.78" speed="18.91" speedRelative="0.96" departed="0" arrived="0" entered="36" left="29" laneChangedFrom="0" laneChangedTo="0" flow="2065.34"/>
        <edge id="9/1to10/1" sampledSeconds="729.36" traveltime="51.80" overlapTraveltime="52.07" density="12.40" overlapDensity="12.40" laneDensity="12.40" occupancy="6.17" waitingTime="0.00" timeLoss="25.44" speed="18.92" speedRelative="0.97" departed="0" arrived="0" entered="29" left="0" laneChangedFrom="0" laneChangedTo="0" flow="844.75"/>
    </interval>
    <interval begin="420.00" end="480.00" id="dump_60">
        <edge id="1/1to2/1" sampledSeconds="1280.53" traveltime="56.08" overlapTraveltime="56.34" density="21.68" overlapDensity="21.78" laneDensity="21.68" occupancy="10.75" waitingTime="2.00" timeLoss="138.47" speed="17.48" speedRelative="0.89" departed="19" arrived="0" entered="4" left="23" laneChangedFrom="0" laneChangedTo="0" flow="1363.56"/>
        <edge id="10/1to1/1" sampledSeconds="970.34" traveltime="51.92" overlapTraveltime="52.20" density="16.48" overlapDensity="16.50" laneDensity="16.48" occupancy="8.21" waitingTime="0.00" timeLoss="36.27" speed="18.87" speedRelative="0.96" departed="0" arrived="0" entered="34" left="4" laneChangedFrom="0" laneChangedTo="0" flow="1119.73"/>
        <edge id="2/1to3/1" sampledSeconds="1194.16" traveltime="51.73" overlapTraveltime="51.99" density="20.21" overlapDensity="20.31" laneDensity="20.21" occupancy="10.10" waitingTime="0.00" timeLoss="39.99" speed="18.94" speedRelative="0.97" departed="0" arrived="0" entered="23" left="23" laneChangedFrom="0" laneChangedTo="0" flow="1378.05"/>
        <edge id="3/1to4/1" sampledSeconds="1194.23" traveltime="51.68" overlapTraveltime="51.95" density="20.20" overlapDensity="20.31" laneDensity="20.20" occupancy="10.10" waitingTime="0.00" timeLoss="39.00" speed="18.96" speedRelative="0.97" departed="0" arrived="0" entered="23" left="24" laneChangedFrom="0" laneChangedTo="0" flow="1379.02"/>
        <edge id="4/1to5/1" sampledSeconds="1230.52" traveltime="51.71" overlapTraveltime="51.97" density="20.82" overlapDensity="20.93" laneDensity="20.82" occupancy="10.41" waitingTime="0.00" timeLoss="40.74" speed="18.95" speedRelative="0.97" departed="0" arrived="0" entered="24" left="24" laneChangedFrom="0" laneChangedTo="0" flow="1420.53"/>
        <edge id="5/1to6/1" sampledSeconds="1311.03" traveltime="51.79" overlapTraveltime="52.05" density="22.16" overlapDensity="22.30" laneDensity="22.16" occupancy="11.09" waitingTime="0.00" timeLoss="45.35" speed="18.92" speedRelative="0.97" departed="0" arrived="0" entered="24" left="31" laneChangedFrom="0" laneChangedTo="0" flow="1509.51"/>
        <edge id="6/1to7/1" sampledSeconds="1810.68" traveltime="51.98" overlapTraveltime="52.24" density="30.63" overlapDensity="30.80" laneDensity="30.63" occupancy="15.32" waitingTime="0.00" timeLoss="69.02" speed="18.85" speedRelative="0.96" departed="0" arrived="0" entered="31" left="36" laneChangedFrom="0" laneChangedTo="0" flow="2079.11"/>
        <edge id="7/1to8/1" sampledSeconds="1844.94" traveltime="51.98" overlapTraveltime="52.24" density="31.22" overlapDensity="31.38" laneDensity="31.22" occupancy="15.61" waitingTime="0.00" timeLoss="70.21" speed="18.85" speedRelative="0.96" departed="0" arrived="0" entered="36" left="35" laneChangedFrom="0" laneChangedTo="0" flow="2119.08"/>
        <edge id="8/1to9/1" sampledSeconds="1841.69" traveltime="51.94" overlapTraveltime="52.21" density="31.17" overlapDensity="31.32" laneDensity="31.17" occupancy="15.58" waitingTime="0.00" timeLoss="68.91" speed="18.87" speedRelative="0.96" departed="0" arrived="0" entered="35" left="35" laneChangedFrom="0" laneChangedTo="0" flow="2116.75"/>
        <edge id="9/1to10/1" sampledSeconds="1816.88" traveltime="51.82" overlapTraveltime="52.08" density="30.75" overlapDensity="30.90" laneDensity="30.75" occupancy="15.37" waitingTime="0.00" timeLoss="63.86" speed="18.91" speedRelative="0.96" departed="0" arrived="0" entered="35" left="34" laneChangedFrom="0" laneChangedTo="0" flow="2093.34"/>
    </interval>
    <interval begin="480.00" end="540.00" id="dump_60">
        <edge id="1/1to2/1" sampledSeconds="1609.61" traveltime="51.80" overlapTraveltime="52.07" density="27.26" overlapDensity="27.38" laneDensity="27.26" occupancy="13.62" waitingTime="0.00" timeLoss="56.08" speed="18.92" speedRelative="0.97" departed="0" arrived="0" entered="35" left="25" laneChangedFrom="0" laneChangedTo="0" flow="1856.58"/>
        <edge id="10/1to1/1" sampledSeconds="1822.35" traveltime="51.90" overlapTraveltime="52.17" density="30.84" overlapDensity="30.99" laneDensity="30.84" occupancy="15.42" waitingTime="0.00" timeLoss="66.88" speed="18.88" speedRelative="0.96" departed="0" arrived="0" entered="35" left="35" laneChangedFrom="0" laneChangedTo="0" flow="2095.98"/>
        <edge id="2/1to3/1" sampledSeconds="1204.61" traveltime="51.75" overlapTraveltime="52.01" density="20.39" overlapDensity="20.49" laneDensity="20.39" occupancy="10.19" waitingTime="0.00" timeLoss="40.74" speed="18.94" speedRelative="0.97" departed="0" arrived="0" entered="25" left="22" laneChangedFrom="0" laneChangedTo="0" flow="1389.99"/>
        <edge id="3/1to4/1" sampledSeconds="1195.18" traveltime="51.71" overlapTraveltime="51.98" density="20.22" overlapDensity="20.33" laneDensity="20.22" occupancy="10.11" waitingTime="0.00" timeLoss="39.62" speed="18.95" speedRelative="0.97" departed="0" arrived="0" entered="22" left="23" laneChangedFrom="0" laneChangedTo="0" flow="1379.71"/>
        <edge id="4/1to5/1" sampledSeconds="1186.36" traveltime="51.71" overlapTraveltime="51.98" density="20.07" overlapDensity="20.18" laneDensity="20.07" occupancy="10.04" waitingTime="0.00" timeLoss="39.41" speed="18.95" speedRelative="0.97" departed="0" arrived="0" entered="23" left="23" laneChangedFrom="0" laneChangedTo="0" flow="1369.33"/>
        <edge id="5/1to6/1" sampledSeconds="1233.48" traveltime="51.74" overlapTraveltime="52.00" density="20.87" overlapDensity="20.98" laneDensity="20.87" occupancy="10.44" waitingTime="0.00" timeLoss="41.45" speed="18.94" speedRelative="0.97" departed="0" arrived="0" entered="23" left="23" laneChangedFrom="0" laneChangedTo="0" flow="1423.39"/>
        <edge id="6/1to7/1" sampledSeconds="1266.25" traveltime="51.73" overlapTraveltime="52.00" density="21.41" overlapDensity="21.54" laneDensity="21.41" occupancy="10.71" waitingTime="0.00" timeLoss="42.49" speed="18.94" speedRelative="0.97" departed="0" arrived="0" entered="23" left="29" laneChangedFrom="0" laneChangedTo="0" flow="1459.72"/>
        <edge id="7/1to8/1" sampledSeconds="1760.94" traveltime="51.94" overlapTraveltime="52.21" density="29.79" overlapDensity="29.95" laneDensity="29.79" occupancy="14.90" waitingTime="0.00" timeLoss="65.90" speed="18.87" speedRelative="0.96" departed="0" arrived="0" entered="29" left="36" laneChangedFrom="0" laneChangedTo="0" flow="2023.15"/>
        <edge id="8/1to9/1" sampledSeconds="1851.38" traveltime="51.98" overlapTraveltime="52.25" density="31.32" overlapDensity="31.49" laneDensity="31.32" occupancy="15.66" waitingTime="0.00" timeLoss="70.78" speed="18.85" speedRelative="0.96" departed="0" arrived="0" entered="36" left="36" laneChangedFrom="0" laneChangedTo="0" flow="2125.82"/>
        <edge id="9/1to10/1" sampledSeconds="1839.99" traveltime="51.90" overlapTraveltime="52.16" density="31.14" overlapDensity="31.29" laneDensity="31.14" occupancy="15.57" waitingTime="0.00" timeLoss="67.43" speed="18.88" speedRelative="0.96" departed="0" arrived="0" entered="36" left="35" laneChangedFrom="0" laneChangedTo="0" flow="2116.48"/>
    </interval>
    <interval begin="540.00" end="600.00" id="dump_60">
        <edge id="1/1to2/1" sampledSeconds="1824.74" traveltime="51.87" overlapTraveltime="52.14" density="30.88" overlapDensity="31.03" laneDensity="30.88" occupancy="15.44" waitingTime="0.00" timeLoss="65.98" speed="18.89" speedRelative="0.96" departed="0" arrived="0" entered="35" left="35" laneChangedFrom="0" laneChangedTo="0" flow="2099.93"/>
        <edge id="10/1to1/1" sampledSeconds="1841.86" traveltime="51.89" overlapTraveltime="52.16" density="31.17" overlapDensity="31.33" laneDensity="31.17" occupancy="15.58" waitingTime="0.00" timeLoss="67.39" speed="18.88" speedRelative="0.96" departed="0" arrived="0" entered="35" left="35" laneChangedFrom="0" laneChangedTo="0" flow="2118.78"/>
        <edge id="2/1to3/1" sampledSeconds="1674.31" traveltime="51.82" overlapTraveltime="52.08" density="28.35" overlapDensity="28.48" laneDensity="28.35" occupancy="14.17" waitingTime="0.00" timeLoss="58.92" speed="18.91" speedRelative="0.96" departed="0" arrived="0" entered="35" left="28" laneChangedFrom="0" laneChangedTo="0" flow="1930.01"/>
        <edge id="3/1to4/1" sampledSeconds="1232.94" traveltime="51.71" overlapTraveltime="51.97" density="20.87" overlapDensity="20.97" laneDensity="20.87" occupancy="10.43" waitingTime="0.00" timeLoss="40.82" speed="18.95" speedRelative="0.97" departed="0" arrived="0" entered="28" left="23" laneChangedFrom="0" laneChangedTo="0" flow="1423.58"/>
        <edge id="4/1to5/1" sampledSeconds="1192.63" traveltime="51.68" overlapTraveltime="51.94" density="20.18" overlapDensity="20.28" laneDensity="20.18" occupancy="10.09" waitingTime="0.00" timeLoss="38.80" speed="18.96" speedRelative="0.97" departed="0" arrived="0" entered="23" left="23" laneChangedFrom="0" laneChangedTo="0" flow="1377.65"/>
        <edge id="5/1to6/1" sampledSeconds="1184.98" traveltime="51.72" overlapTraveltime="51.98" density="20.05" overlapDensity="20.15" laneDensity="20.05" occupancy="10.03" waitingTime="0.00" timeLoss="39.40" speed="18.95" speedRelative="0.97" departed="0" arrived="0" entered="23" left="23" laneChangedFrom="0" laneChangedTo="0" flow="1367.74"/>
        <edge id="6/1to7/1" sampledSeconds="1231.07" traveltime="51.74" overlapTraveltime="52.00" density="20.83" overlapDensity="20.94" laneDensity="20.83" occupancy="10.42" waitingTime="0.00" timeLoss="41.43" speed="18.94" speedRelative="0.97" departed="0" arrived="0" entered="23" left="23" laneChangedFrom="0" laneChangedTo="0" flow="1420.61"/>
        <edge id="7/1to8/1" sampledSeconds="1236.87" traveltime="51.79" overlapTraveltime="52.05" density="20.92" overlapDensity="21.04" laneDensity="20.92" occupancy="10.46" waitingTime="0.00" timeLoss="42.77" speed="18.92" speedRelative="0.97" departed="0" arrived="0" entered="23" left="26" laneChangedFrom="0" laneChangedTo="0" flow="1425.05"/>
        <edge id="8/1to9/1" sampledSeconds="1697.76" traveltime="51.94" overlapTraveltime="52.20" density="28.71" overlapDensity="28.88" laneDensity="28.71" occupancy="14.37" waitingTime="0.00" timeLoss="63.47" speed="18.87" speedRelative="0.96" departed="0" arrived="0" entered="26" left="36" laneChangedFrom="0" laneChangedTo="0" flow="1950.25"/>
        <edge id="9/1to10/1" sampledSeconds="1852.78" traveltime="51.86" overlapTraveltime="52.13" density="31.35" overlapDensity="31.51" laneDensity="31.35" occupancy="15.68" waitingTime="0.00" timeLoss="66.59" speed="18.90" speedRelative="0.96" departed="0" arrived="0" entered="36" left="35" laneChangedFrom="0" laneChangedTo="0" flow="2132.84"/>
    </interval>
    <interval begin="600.00" end="660.00" id="dump_60">
        <edge id="1/1to2/1" sampledSeconds="1837.65" traveltime="51.90" overlapTraveltime="52.17" density="31.09" overlapDensity="31.25" laneDensity="31.09" occupancy="15.55" waitingTime="0.00" timeLoss="67.41" speed="18.88" speedRelative="0.96" departed="0" arrived="0" entered="35" left="36" laneChangedFrom="0" laneChangedTo="0" flow="2113.40"/>
        <edge id="10/1to1/1" sampledSeconds="1859.81" traveltime="51.97" overlapTraveltime="52.24" density="31.47" overlapDensity="31.63" laneDensity="31.47" occupancy="15.74" waitingTime="0.00" timeLoss="70.68" speed="18.86" speedRelative="0.96" departed="0" arrived="0" entered="36" left="35" laneChangedFrom="0" laneChangedTo="0" flow="2136.37"/>
        <edge id="2/1to3/1" sampledSeconds="1827.66" traveltime="51.85" overlapTraveltime="52.11" density="30.93" overlapDensity="31.08" laneDensity="30.93" occupancy="15.46" waitingTime="0.00" timeLoss="65.31" speed="18.90" speedRelative="0.96" departed="0" arrived="0" entered="36" left="35" laneChangedFrom="0" laneChangedTo="0" flow="2104.23"/>
        <edge id="3/1to4/1" sampledSeconds="1727.18" traveltime="51.88" overlapTraveltime="52.14" density="29.25" overlapDensity="29.38" laneDensity="29.25" occupancy="14.62" waitingTime="0.00" timeLoss="62.58" speed="18.89" speedRelative="0.96" departed="0" arrived="0" entered="35" left="28" laneChangedFrom="0" laneChangedTo="0" flow="1989.07"/>
        <edge id="4/1to5/1" sampledSeconds="1274.17" traveltime="51.76" overlapTraveltime="52.02" density="21.57" overlapDensity="21.67" laneDensity="21.57" occupancy="10.78" waitingTime="0.00" timeLoss="43.42" speed="18.93" speedRelative="0.97" departed="0" arrived="0" entered="28" left="22" laneChangedFrom="0" laneChangedTo="0" flow="1470.26"/>
        <edge id="5/1to6/1" sampledSeconds="1190.16" traveltime="51.73" overlapTraveltime="51.99" density="20.14" overlapDensity="20.24" laneDensity="20.14" occupancy="10.07" waitingTime="0.00" timeLoss="39.76" speed="18.95" speedRelative="0.97" departed="0" arrived="0" entered="22" left="23" laneChangedFrom="0" laneChangedTo="0" flow="1373.52"/>