<?xml version="1.0" encoding="UTF-8"?>

<!-- generated on Mon Mar 30 15:08:05 2020 by Eclipse SUMO Version v1_5_0+1011-3e02c63d25
This data file and the accompanying materials
are made available under the terms of the Eclipse Public License v2.0
which accompanies this distribution, and is available at
http://www.eclipse.org/legal/epl-v20.html
SPDX-License-Identifier: EPL-2.0
<configuration xmlns:xsi="http://www.w3.org/2001/XMLSchema-instance" xsi:noNamespaceSchemaLocation="http://sumo.dlr.de/xsd/sumoConfiguration.xsd">

    <input>
        <net-file value="motorway.net.xml"/>
        <route-files value="input_routes.rou.xml"/>
        <additional-files value="input_additional.add.xml"/>
    </input>

    <output>
        <write-license value="true"/>
    </output>

    <processing>
        <max-depart-delay value="1"/>
        <default.speeddev value="0"/>
    </processing>

    <report>
        <verbose value="true"/>
        <xml-validation value="never"/>
        <duration-log.statistics value="true"/>
        <no-step-log value="true"/>
    </report>

</configuration>
-->

<detector xmlns:xsi="http://www.w3.org/2001/XMLSchema-instance" xsi:noNamespaceSchemaLocation="http://sumo.dlr.de/xsd/det_e1_file.xsd">
    <interval begin="0.00" end="900.00" id="end2_0" nVehContrib="518" flow="2072.00" occupancy="9.05" speed="32.00" harmonicMeanSpeed="31.81" length="5.00" nVehEntered="519"/>
    <interval begin="900.00" end="1800.00" id="end2_0" nVehContrib="601" flow="2404.00" occupancy="10.76" speed="31.23" harmonicMeanSpeed="31.04" length="5.00" nVehEntered="600"/>
    <interval begin="1800.00" end="1916.00" id="end2_0" nVehContrib="81" flow="2513.79" occupancy="11.01" speed="31.77" harmonicMeanSpeed="31.71" length="5.00" nVehEntered="81"/>
</detector>
