<?xml version="1.0" encoding="UTF-8"?>

<!-- generated on 2026-03-24T00:46:20.900820+01:00 by Eclipse SUMO sumo v1_26_0+0789-95fba8bbfc0
This data file and the accompanying materials
are made available under the terms of the Eclipse Public License v2.0
which accompanies this distribution, and is available at
http://www.eclipse.org/legal/epl-v20.html
This file may also be made available under the following Secondary
Licenses when the conditions for such availability set forth in the Eclipse
Public License 2.0 are satisfied: GNU General Public License, version 2
or later which is available at
https://www.gnu.org/licenses/old-licenses/gpl-2.0-standalone.html
SPDX-License-Identifier: EPL-2.0 OR GPL-2.0-or-later
<sumoConfiguration xmlns:xsi="http://www.w3.org/2001/XMLSchema-instance" xsi:noNamespaceSchemaLocation="http://sumo.dlr.de/xsd/sumoConfiguration.xsd">

    <input>
        <net-file value="net.net.xml"/>
        <additional-files value="input_routes.rou.xml"/>
    </input>

    <output>
        <write-license value="true"/>
        <fcd-output value="fcd.xml"/>
        <fcd-output.attributes value="delay,arrivalDelay"/>
    </output>

    <time>
        <end value="5"/>
    </time>

    <processing>
        <default.speeddev value="0"/>
    </processing>

    <report>
        <xml-validation value="never"/>
        <duration-log.disable value="true"/>
        <no-step-log value="true"/>
    </report>

</sumoConfiguration>
-->

<fcd-export xmlns:xsi="http://www.w3.org/2001/XMLSchema-instance" xsi:noNamespaceSchemaLocation="http://sumo.dlr.de/xsd/fcd_file.xsd">
    <timestep time="0.00">
        <vehicle id="0" arrivalDelay="22.16" delay="6.16"/>
    </timestep>
    <timestep time="1.00">
        <vehicle id="0" arrivalDelay="22.16" delay="6.16"/>
    </timestep>
    <timestep time="2.00">
        <vehicle id="0" arrivalDelay="22.16" delay="6.16"/>
    </timestep>
    <timestep time="3.00">
        <vehicle id="0" arrivalDelay="22.16" delay="6.16"/>
    </timestep>
    <timestep time="4.00">
        <vehicle id="0" arrivalDelay="22.16" delay="6.16"/>
    </timestep>
</fcd-export>
