<?xml version="1.0" encoding="UTF-8"?>

<!-- generated on 2026-04-23T13:19:14.996094+01:00 by Eclipse SUMO sumo v1_26_0+1352-fc0eb841c93
<sumoConfiguration xmlns:xsi="http://www.w3.org/2001/XMLSchema-instance" xsi:noNamespaceSchemaLocation="http://sumo.dlr.de/xsd/sumoConfiguration.xsd">

    <input>
        <net-file value="net.net.xml"/>
        <additional-files value="input_additional.add.xml"/>
        <load-state value="state.xml"/>
    </input>

    <output>
        <tripinfo-output value="tripinfo2.xml"/>
    </output>

    <processing>
        <default.departspeed value="0"/>
        <default.departlane value="first"/>
        <default.speeddev value="0"/>
    </processing>

    <report>
        <verbose value="true"/>
        <duration-log.disable value="true"/>
        <no-step-log value="true"/>
    </report>

</sumoConfiguration>
-->

<tripinfos xmlns:xsi="http://www.w3.org/2001/XMLSchema-instance" xsi:noNamespaceSchemaLocation="http://sumo.dlr.de/xsd/tripinfo_file.xsd">
    <tripinfo id="v0" depart="10.00" departLane="beg_0" departPos="5.10" departSpeed="0.00" departDelay="0.00" arrival="59.00" arrivalLane="end_0" arrivalPos="100.00" arrivalSpeed="13.89" duration="49.00" routeLength="301.90" waitingTime="0.00" waitingCount="0" stopTime="19.00" timeLoss="2.77" rerouteNo="0" devices="tripinfo_v0" vType="t0" speedFactor="1.00" vaporized=""/>
</tripinfos>
