<?xml version="1.0" encoding="UTF-8"?>

<!-- generated on Tue Dec 13 13:39:48 2016 by SUMO Version dev-SVN-r22280
<?xml version="1.0" encoding="UTF-8"?>

<configuration xmlns:xsi="http://www.w3.org/2001/XMLSchema-instance" xsi:noNamespaceSchemaLocation="http://sumo.dlr.de/xsd/sumoConfiguration.xsd">

    <input>
        <net-file value="net.net.xml"/>
        <route-files value="input_routes.rou.xml"/>
    </input>

    <output>
        <emission-output value="emissions.xml"/>
    </output>

    <time>
        <begin value="0"/>
        <end value="120"/>
    </time>

    <report>
        <xml-validation value="never"/>
        <duration-log.disable value="true"/>
        <no-step-log value="true"/>
    </report>

</configuration>
-->

<emission-export xmlns:xsi="http://www.w3.org/2001/XMLSchema-instance" xsi:noNamespaceSchemaLocation="http://sumo.dlr.de/xsd/emission_file.xsd">
    <timestep time="0.00"/>
    <timestep time="1.00"/>
    <timestep time="2.00"/>
    <timestep time="3.00"/>
    <timestep time="4.00"/>
    <timestep time="5.00"/>
    <timestep time="6.00"/>
    <timestep time="7.00"/>
    <timestep time="8.00"/>
    <timestep time="9.00"/>
    <timestep time="10.00"/>
    <timestep time="11.00"/>
    <timestep time="12.00"/>
    <timestep time="13.00"/>
    <timestep time="14.00"/>
    <timestep time="15.00"/>
    <timestep time="16.00"/>
    <timestep time="17.00"/>
    <timestep time="18.00"/>
    <timestep time="19.00"/>
    <timestep time="20.00"/>
    <timestep time="21.00"/>
    <timestep time="22.00"/>
    <timestep time="23.00"/>
    <timestep time="24.00"/>
    <timestep time="25.00"/>
    <timestep time="26.00"/>
    <timestep time="27.00"/>
    <timestep time="28.00"/>
    <timestep time="29.00"/>
    <timestep time="30.00"/>
    <timestep time="31.00"/>
    <timestep time="32.00"/>
    <timestep time="33.00"/>
    <timestep time="34.00"/>
    <timestep time="35.00"/>
    <timestep time="36.00"/>
    <timestep time="37.00"/>
    <timestep time="38.00"/>
    <timestep time="39.00"/>
    <timestep time="40.00"/>
    <timestep time="41.00"/>
    <timestep time="42.00"/>
    <timestep time="43.00"/>
    <timestep time="44.00"/>
    <timestep time="45.00"/>
    <timestep time="46.00"/>
    <timestep time="47.00"/>
    <timestep time="48.00"/>
    <timestep time="49.00"/>
    <timestep time="50.00"/>
    <timestep time="51.00"/>
    <timestep time="52.00"/>
    <timestep time="53.00"/>
    <timestep time="54.00"/>
    <timestep time="55.00"/>
    <timestep time="56.00"/>
    <timestep time="57.00"/>
    <timestep time="58.00"/>
    <timestep time="59.00"/>
    <timestep time="60.00"/>
    <timestep time="61.00"/>
    <timestep time="62.00"/>
    <timestep time="63.00"/>
    <timestep time="64.00"/>
    <timestep time="65.00"/>
    <timestep time="66.00"/>
    <timestep time="67.00"/>
    <timestep time="68.00"/>
    <timestep time="69.00"/>
    <timestep time="70.00"/>
    <timestep time="71.00"/>
    <timestep time="72.00"/>
    <timestep time="73.00"/>
    <timestep time="74.00"/>
    <timestep time="75.00"/>
    <timestep time="76.00"/>
    <timestep time="77.00"/>
    <timestep time="78.00"/>
    <timestep time="79.00"/>
    <timestep time="80.00"/>
    <timestep time="81.00"/>
    <timestep time="82.00"/>
    <timestep time="83.00"/>
    <timestep time="84.00"/>
    <timestep time="85.00"/>
    <timestep time="86.00"/>
    <timestep time="87.00"/>
    <timestep time="88.00"/>
    <timestep time="89.00"/>
    <timestep time="90.00"/>
    <timestep time="91.00"/>
    <timestep time="92.00"/>
    <timestep time="93.00"/>
    <timestep time="94.00"/>
    <timestep time="95.00"/>
    <timestep time="96.00"/>
    <timestep time="97.00"/>
    <timestep time="98.00"/>
    <timestep time="99.00"/>
    <timestep time="100.00">
        <vehicle id="always_left.0" eclass="HBEFA3/PC_G_EU4" CO2="2624.72" CO="164.78" HC="0.81" NOx="1.20" PMx="0.07" fuel="1.13" electricity="0.00" noise="55.94" route="always_left" type="DEFAULT_VEHTYPE" waiting="0.00" lane="1fi_0" pos="5.10" speed="0.00" angle="90.00" x="5.10" y="498.35"/>
        <vehicle id="always_right.0" eclass="HBEFA3/PC_G_EU4" CO2="2624.72" CO="164.78" HC="0.81" NOx="1.20" PMx="0.07" fuel="1.13" electricity="0.00" noise="55.94" route="always_right" type="DEFAULT_VEHTYPE" waiting="0.00" lane="3fi_0" pos="5.10" speed="0.00" angle="0.00" x="501.65" y="5.10"/>
        <vehicle id="horizontal.0" eclass="HBEFA3/PC_G_EU4" CO2="2624.72" CO="164.78" HC="0.81" NOx="1.20" PMx="0.07" fuel="1.13" electricity="0.00" noise="55.94" route="horizontal" type="DEFAULT_VEHTYPE" waiting="0.00" lane="2fi_0" pos="5.10" speed="0.00" angle="270.00" x="994.90" y="501.65"/>
    </timestep>
    <timestep time="101.00">
        <vehicle id="always_left.0" eclass="HBEFA3/PC_G_EU4" CO2="2995.77" CO="147.80" HC="0.74" NOx="1.34" PMx="0.07" fuel="1.29" electricity="0.00" noise="62.83" route="always_left" type="DEFAULT_VEHTYPE" waiting="0.00" lane="1fi_0" pos="6.54" speed="1.44" angle="90.00" x="6.54" y="498.35"/>
        <vehicle id="always_right.0" eclass="HBEFA3/PC_G_EU4" CO2="4028.60" CO="151.47" HC="0.78" NOx="1.80" PMx="0.09" fuel="1.73" electricity="0.00" noise="68.10" route="always_right" type="DEFAULT_VEHTYPE" waiting="0.00" lane="3fi_0" pos="7.64" speed="2.54" angle="0.00" x="501.65" y="7.64"/>
        <vehicle id="horizontal.0" eclass="HBEFA3/PC_G_EU4" CO2="3159.79" CO="147.38" HC="0.74" NOx="1.41" PMx="0.07" fuel="1.36" electricity="0.00" noise="63.95" route="horizontal" type="DEFAULT_VEHTYPE" waiting="0.00" lane="2fi_0" pos="6.77" speed="1.67" angle="270.00" x="993.23" y="501.65"/>
    </timestep>
    <timestep time="102.00">
        <vehicle id="always_left.0" eclass="HBEFA3/PC_G_EU4" CO2="4013.62" CO="138.06" HC="0.72" NOx="1.77" PMx="0.08" fuel="1.73" electricity="0.00" noise="65.91" route="always_left" type="DEFAULT_VEHTYPE" waiting="0.00" lane="1fi_0" pos="9.94" speed="3.40" angle="90.00" x="9.94" y="498.35"/>
        <vehicle id="always_right.0" eclass="HBEFA3/PC_G_EU4" CO2="5538.55" CO="145.70" HC="0.79" NOx="2.44" PMx="0.12" fuel="2.38" electricity="0.00" noise="69.16" route="always_right" type="DEFAULT_VEHTYPE" waiting="0.00" lane="3fi_0" pos="12.73" speed="5.08" angle="0.00" x="501.65" y="12.73"/>
        <vehicle id="horizontal.0" eclass="HBEFA3/PC_G_EU4" CO2="3941.87" CO="135.05" HC="0.71" NOx="1.73" PMx="0.08" fuel="1.69" electricity="0.00" noise="65.39" route="horizontal" type="DEFAULT_VEHTYPE" waiting="0.00" lane="2fi_0" pos="10.28" speed="3.51" angle="270.00" x="989.72" y="501.65"/>
        <vehicle id="vertical.0" eclass="HBEFA3/PC_G_EU4" CO2="2624.72" CO="164.78" HC="0.81" NOx="1.20" PMx="0.07" fuel="1.13" electricity="0.00" noise="55.94" route="vertical" type="DEFAULT_VEHTYPE" waiting="0.00" lane="3fi_0" pos="5.10" speed="0.00" angle="0.00" x="501.65" y="5.10"/>
    </timestep>
    <timestep time="103.00">
        <vehicle id="always_left.0" eclass="HBEFA3/PC_G_EU4" CO2="4315.28" CO="121.16" HC="0.65" NOx="1.86" PMx="0.09" fuel="1.85" electricity="0.00" noise="65.20" route="always_left" type="DEFAULT_VEHTYPE" waiting="0.00" lane="1fi_0" pos="14.98" speed="5.04" angle="90.00" x="14.98" y="498.35"/>
        <vehicle id="always_right.0" eclass="HBEFA3/PC_G_EU4" CO2="5540.16" CO="121.84" HC="0.69" NOx="2.39" PMx="0.11" fuel="2.38" electricity="0.00" noise="67.19" route="always_right" type="DEFAULT_VEHTYPE" waiting="0.00" lane="3fi_0" pos="19.70" speed="6.98" angle="0.00" x="501.65" y="19.70"/>
        <vehicle id="horizontal.0" eclass="HBEFA3/PC_G_EU4" CO2="5572.37" CO="137.19" HC="0.76" NOx="2.44" PMx="0.12" fuel="2.40" electricity="0.00" noise="68.32" route="horizontal" type="DEFAULT_VEHTYPE" waiting="0.00" lane="2fi_0" pos="16.07" speed="5.79" angle="270.00" x="983.93" y="501.65"/>
        <vehicle id="vertical.0" eclass="HBEFA3/PC_G_EU4" CO2="2620.09" CO="156.91" HC="0.78" NOx="1.19" PMx="0.06" fuel="1.13" electricity="0.00" noise="58.06" route="vertical" type="DEFAULT_VEHTYPE" waiting="0.00" lane="3fi_0" pos="5.54" speed="0.44" angle="0.00" x="501.65" y="5.54"/>
    </timestep>
    <timestep time="104.00">
        <vehicle id="always_left.0" eclass="HBEFA3/PC_G_EU4" CO2="7246.39" CO="149.40" HC="0.85" NOx="3.18" PMx="0.15" fuel="3.11" electricity="0.00" noise="70.50" route="always_left" type="DEFAULT_VEHTYPE" waiting="0.00" lane="1fi_0" pos="22.61" speed="7.63" angle="90.00" x="22.61" y="498.35"/>
        <vehicle id="always_right.0" eclass="HBEFA3/PC_G_EU4" CO2="6754.41" CO="124.87" HC="0.73" NOx="2.91" PMx="0.14" fuel="2.90" electricity="0.00" noise="68.58" route="always_right" type="DEFAULT_VEHTYPE" waiting="0.00" lane="3fi_0" pos="28.67" speed="8.97" angle="0.00" x="501.65" y="28.67"/>
        <vehicle id="horizontal.0" eclass="HBEFA3/PC_G_EU4" CO2="5470.17" CO="114.18" HC="0.65" NOx="2.34" PMx="0.11" fuel="2.35" electricity="0.00" noise="66.75" route="horizontal" type="DEFAULT_VEHTYPE" waiting="0.00" lane="2fi_0" pos="23.58" speed="7.51" angle="270.00" x="976.42" y="501.65"/>
        <vehicle id="vertical.0" eclass="HBEFA3/PC_G_EU4" CO2="3641.92" CO="144.82" HC="0.74" NOx="1.62" PMx="0.08" fuel="1.57" electricity="0.00" noise="65.74" route="vertical" type="DEFAULT_VEHTYPE" waiting="0.00" lane="3fi_0" pos="8.00" speed="2.46" angle="0.00" x="501.65" y="8.00"/>
    </timestep>
    <timestep time="105.00">
        <vehicle id="always_left.0" eclass="HBEFA3/PC_G_EU4" CO2="6712.30" CO="118.79" HC="0.70" NOx="2.88" PMx="0.13" fuel="2.89" electricity="0.00" noise="68.30" route="always_left" type="DEFAULT_VEHTYPE" waiting="0.00" lane="1fi_0" pos="32.10" speed="9.49" angle="90.00" x="32.10" y="498.35"/>
        <vehicle id="always_right.0" eclass="HBEFA3/PC_G_EU4" CO2="8079.18" CO="132.93" HC="0.80" NOx="3.48" PMx="0.17" fuel="3.47" electricity="0.00" noise="69.88" route="always_right" type="DEFAULT_VEHTYPE" waiting="0.00" lane="3fi_0" pos="39.70" speed="11.03" angle="0.00" x="501.65" y="39.70"/>
        <vehicle id="horizontal.0" eclass="HBEFA3/PC_G_EU4" CO2="7849.82" CO="139.58" HC="0.82" NOx="3.41" PMx="0.16" fuel="3.37" electricity="0.00" noise="70.06" route="horizontal" type="DEFAULT_VEHTYPE" waiting="0.00" lane="2fi_0" pos="33.34" speed="9.77" angle="270.00" x="966.66" y="501.65"/>
        <vehicle id="vertical.0" eclass="HBEFA3/PC_G_EU4" CO2="3729.85" CO="124.68" HC="0.65" NOx="1.62" PMx="0.08" fuel="1.60" electricity="0.00" noise="63.95" route="vertical" type="DEFAULT_VEHTYPE" waiting="0.00" lane="3fi_0" pos="11.92" speed="3.92" angle="0.00" x="501.65" y="11.92"/>
    </timestep>
    <timestep time="106.00">
        <vehicle id="always_left.0" eclass="HBEFA3/PC_G_EU4" CO2="5475.97" CO="82.26" HC="0.50" NOx="2.26" PMx="0.10" fuel="2.35" electricity="0.00" noise="66.29" route="always_left" type="DEFAULT_VEHTYPE" waiting="0.00" lane="1fi_0" pos="42.79" speed="10.69" angle="90.00" x="42.79" y="498.35"/>
        <vehicle id="always_right.0" eclass="HBEFA3/PC_G_EU4" CO2="2202.13" CO="11.78" HC="0.10" NOx="0.71" PMx="0.01" fuel="0.95" electricity="0.00" noise="62.59" route="always_right" type="DEFAULT_VEHTYPE" waiting="0.00" lane="3fi_0" pos="50.75" speed="11.05" angle="0.00" x="501.65" y="50.75"/>
        <vehicle id="horizontal.0" eclass="HBEFA3/PC_G_EU4" CO2="3330.97" CO="42.30" HC="0.27" NOx="1.26" PMx="0.04" fuel="1.43" electricity="0.00" noise="63.36" route="horizontal" type="DEFAULT_VEHTYPE" waiting="0.00" lane="2fi_0" pos="43.56" speed="10.22" angle="270.00" x="956.44" y="501.65"/>
        <vehicle id="vertical.0" eclass="HBEFA3/PC_G_EU4" CO2="5082.89" CO="126.26" HC="0.69" NOx="2.21" PMx="0.10" fuel="2.18" electricity="0.00" noise="66.86" route="vertical" type="DEFAULT_VEHTYPE" waiting="0.00" lane="3fi_0" pos="17.77" speed="5.85" angle="0.00" x="501.65" y="17.77"/>
    </timestep>
    <timestep time="107.00">
        <vehicle id="always_left.0" eclass="HBEFA3/PC_G_EU4" CO2="2189.64" CO="14.43" HC="0.11" NOx="0.71" PMx="0.01" fuel="0.94" electricity="0.00" noise="62.35" route="always_left" type="DEFAULT_VEHTYPE" waiting="0.00" lane="1fi_0" pos="53.50" speed="10.71" angle="90.00" x="53.50" y="498.35"/>
        <vehicle id="always_right.0" eclass="HBEFA3/PC_G_EU4" CO2="0.00" CO="0.00" HC="0.00" NOx="0.00" PMx="0.00" fuel="0.00" electricity="0.00" noise="58.96" route="always_right" type="DEFAULT_VEHTYPE" waiting="0.00" lane="3fi_0" pos="60.64" speed="9.89" angle="0.00" x="501.65" y="60.64"/>
        <vehicle id="horizontal.0" eclass="HBEFA3/PC_G_EU4" CO2="2295.41" CO="20.39" HC="0.14" NOx="0.77" PMx="0.02" fuel="0.99" electricity="0.00" noise="62.17" route="horizontal" type="DEFAULT_VEHTYPE" waiting="0.00" lane="2fi_0" pos="53.85" speed="10.29" angle="270.00" x="946.15" y="501.65"/>
        <vehicle id="vertical.0" eclass="HBEFA3/PC_G_EU4" CO2="5034.89" CO="106.71" HC="0.60" NOx="2.14" PMx="0.10" fuel="2.16" electricity="0.00" noise="65.86" route="vertical" type="DEFAULT_VEHTYPE" waiting="0.00" lane="3fi_0" pos="25.15" speed="7.38" angle="0.00" x="501.65" y="25.15"/>
    </timestep>
    <timestep time="108.00">
        <vehicle id="always_left.0" eclass="HBEFA3/PC_G_EU4" CO2="0.00" CO="0.00" HC="0.00" NOx="0.00" PMx="0.00" fuel="0.00" electricity="0.00" noise="59.81" route="always_left" type="DEFAULT_VEHTYPE" waiting="0.00" lane="1fi_0" pos="63.46" speed="9.96" angle="90.00" x="63.46" y="498.35"/>
        <vehicle id="always_right.0" eclass="HBEFA3/PC_G_EU4" CO2="3515.88" CO="44.47" HC="0.28" NOx="1.35" PMx="0.05" fuel="1.51" electricity="0.00" noise="63.67" route="always_right" type="DEFAULT_VEHTYPE" waiting="0.00" lane="3fi_0" pos="71.04" speed="10.40" angle="0.00" x="501.65" y="71.04"/>
        <vehicle id="horizontal.0" eclass="HBEFA3/PC_G_EU4" CO2="2981.69" CO="31.76" HC="0.21" NOx="1.09" PMx="0.03" fuel="1.28" electricity="0.00" noise="63.13" route="horizontal" type="DEFAULT_VEHTYPE" waiting="0.00" lane="2fi_0" pos="64.44" speed="10.59" angle="270.00" x="935.56" y="501.65"/>
        <vehicle id="vertical.0" eclass="HBEFA3/PC_G_EU4" CO2="7883.43" CO="141.17" HC="0.83" NOx="3.43" PMx="0.16" fuel="3.39" electricity="0.00" noise="70.17" route="vertical" type="DEFAULT_VEHTYPE" waiting="0.00" lane="3fi_0" pos="34.82" speed="9.67" angle="0.00" x="501.65" y="34.82"/>
    </timestep>
    <timestep time="109.00">
        <vehicle id="always_left.0" eclass="HBEFA3/PC_G_EU4" CO2="5357.75" CO="76.59" HC="0.47" NOx="2.20" PMx="0.09" fuel="2.30" electricity="0.00" noise="66.17" route="always_left" type="DEFAULT_VEHTYPE" waiting="0.00" lane="1fi_0" pos="74.53" speed="11.07" angle="90.00" x="74.53" y="498.35"/>
        <vehicle id="always_right.0" eclass="HBEFA3/PC_G_EU4" CO2="0.00" CO="0.00" HC="0.00" NOx="0.00" PMx="0.00" fuel="0.00" electricity="0.00" noise="61.06" route="always_right" type="DEFAULT_VEHTYPE" waiting="0.00" lane="3fi_0" pos="81.16" speed="10.12" angle="0.00" x="501.65" y="81.16"/>
        <vehicle id="horizontal.0" eclass="HBEFA3/PC_G_EU4" CO2="2480.18" CO="20.35" HC="0.15" NOx="0.85" PMx="0.02" fuel="1.07" electricity="0.00" noise="62.65" route="horizontal" type="DEFAULT_VEHTYPE" waiting="0.00" lane="2fi_0" pos="75.16" speed="10.72" angle="270.00" x="924.84" y="501.65"/>
        <vehicle id="vertical.0" eclass="HBEFA3/PC_G_EU4" CO2="5641.78" CO="83.84" HC="0.51" NOx="2.34" PMx="0.10" fuel="2.43" electricity="0.00" noise="66.52" route="vertical" type="DEFAULT_VEHTYPE" waiting="0.00" lane="3fi_0" pos="45.73" speed="10.90" angle="0.00" x="501.65" y="45.73"/>
    </timestep>
    <timestep time="110.00">
        <vehicle id="always_left.0" eclass="HBEFA3/PC_G_EU4" CO2="0.00" CO="0.00" HC="0.00" NOx="0.00" PMx="0.00" fuel="0.00" electricity="0.00" noise="58.87" route="always_left" type="DEFAULT_VEHTYPE" waiting="0.00" lane="1fi_0" pos="84.40" speed="9.87" angle="90.00" x="84.40" y="498.35"/>
        <vehicle id="always_left.1" eclass="HBEFA3/PC_G_EU4" CO2="2624.72" CO="164.78" HC="0.81" NOx="1.20" PMx="0.07" fuel="1.13" electricity="0.00" noise="55.94" route="always_left" type="DEFAULT_VEHTYPE" waiting="0.00" lane="1fi_0" pos="5.10" speed="0.00" angle="90.00" x="5.10" y="498.35"/>
        <vehicle id="always_right.0" eclass="HBEFA3/PC_G_EU4" CO2="2393.65" CO="23.02" HC="0.16" NOx="0.82" PMx="0.02" fuel="1.03" electricity="0.00" noise="62.24" route="always_right" type="DEFAULT_VEHTYPE" waiting="0.00" lane="3fi_0" pos="91.38" speed="10.22" angle="0.00" x="501.65" y="91.38"/>
        <vehicle id="always_right.1" eclass="HBEFA3/PC_G_EU4" CO2="2624.72" CO="164.78" HC="0.81" NOx="1.20" PMx="0.07" fuel="1.13" electricity="0.00" noise="55.94" route="always_right" type="DEFAULT_VEHTYPE" waiting="0.00" lane="3fi_0" pos="5.10" speed="0.00" angle="0.00" x="501.65" y="5.10"/>
        <vehicle id="horizontal.0" eclass="HBEFA3/PC_G_EU4" CO2="3170.65" CO="31.54" HC="0.22" NOx="1.17" PMx="0.04" fuel="1.36" electricity="0.00" noise="63.59" route="horizontal" type="DEFAULT_VEHTYPE" waiting="0.00" lane="2fi_0" pos="86.23" speed="11.07" angle="270.00" x="913.77" y="501.65"/>
        <vehicle id="horizontal.1" eclass="HBEFA3/PC_G_EU4" CO2="2624.72" CO="164.78" HC="0.81" NOx="1.20" PMx="0.07" fuel="1.13" electricity="0.00" noise="55.94" route="horizontal" type="DEFAULT_VEHTYPE" waiting="0.00" lane="2fi_0" pos="5.10" speed="0.00" angle="270.00" x="994.90" y="501.65"/>
        <vehicle id="vertical.0" eclass="HBEFA3/PC_G_EU4" CO2="0.00" CO="0.00" HC="0.00" NOx="0.00" PMx="0.00" fuel="0.00" electricity="0.00" noise="61.66" route="vertical" type="DEFAULT_VEHTYPE" waiting="0.00" lane="3fi_0" pos="56.41" speed="10.68" angle="0.00" x="501.65" y="56.41"/>
    </timestep>
    <timestep time="111.00">
        <vehicle id="always_left.0" eclass="HBEFA3/PC_G_EU4" CO2="5212.01" CO="74.66" HC="0.46" NOx="2.13" PMx="0.09" fuel="2.24" electricity="0.00" noise="65.97" route="always_left" type="DEFAULT_VEHTYPE" waiting="0.00" lane="1fi_0" pos="95.34" speed="10.94" angle="90.00" x="95.34" y="498.35"/>
        <vehicle id="always_left.1" eclass="HBEFA3/PC_G_EU4" CO2="3903.24" CO="150.51" HC="0.78" NOx="1.74" PMx="0.09" fuel="1.68" electricity="0.00" noise="67.60" route="always_left" type="DEFAULT_VEHTYPE" waiting="0.00" lane="1fi_0" pos="7.54" speed="2.44" angle="90.00" x="7.54" y="498.35"/>
        <vehicle id="always_right.0" eclass="HBEFA3/PC_G_EU4" CO2="3673.73" CO="44.50" HC="0.29" NOx="1.41" PMx="0.05" fuel="1.58" electricity="0.00" noise="64.01" route="always_right" type="DEFAULT_VEHTYPE" waiting="0.00" lane="3fi_0" pos="102.15" speed="10.77" angle="0.00" x="501.65" y="102.15"/>
        <vehicle id="always_right.1" eclass="HBEFA3/PC_G_EU4" CO2="3838.81" CO="150.05" HC="0.77" NOx="1.71" PMx="0.09" fuel="1.65" electricity="0.00" noise="67.34" route="always_right" type="DEFAULT_VEHTYPE" waiting="0.00" lane="3fi_0" pos="7.48" speed="2.38" angle="0.00" x="501.65" y="7.48"/>
        <vehicle id="horizontal.0" eclass="HBEFA3/PC_G_EU4" CO2="0.00" CO="0.00" HC="0.00" NOx="0.00" PMx="0.00" fuel="0.00" electricity="0.00" noise="60.92" route="horizontal" type="DEFAULT_VEHTYPE" waiting="0.00" lane="2fi_0" pos="96.81" speed="10.58" angle="270.00" x="903.19" y="501.65"/>
        <vehicle id="horizontal.1" eclass="HBEFA3/PC_G_EU4" CO2="2936.61" CO="148.16" HC="0.74" NOx="1.31" PMx="0.07" fuel="1.26" electricity="0.00" noise="62.38" route="horizontal" type="DEFAULT_VEHTYPE" waiting="0.00" lane="2fi_0" pos="6.45" speed="1.35" angle="270.00" x="993.55" y="501.65"/>
        <vehicle id="vertical.0" eclass="HBEFA3/PC_G_EU4" CO2="2536.47" CO="20.62" HC="0.15" NOx="0.87" PMx="0.02" fuel="1.09" electricity="0.00" noise="62.77" route="vertical" type="DEFAULT_VEHTYPE" waiting="0.00" lane="3fi_0" pos="67.23" speed="10.82" angle="0.00" x="501.65" y="67.23"/>
    </timestep>
    <timestep time="112.00">
        <vehicle id="always_left.0" eclass="HBEFA3/PC_G_EU4" CO2="0.00" CO="0.00" HC="0.00" NOx="0.00" PMx="0.00" fuel="0.00" electricity="0.00" noise="60.56" route="always_left" type="DEFAULT_VEHTYPE" waiting="0.00" lane="1fi_0" pos="105.70" speed="10.37" angle="90.00" x="105.70" y="498.35"/>
        <vehicle id="always_left.1" eclass="HBEFA3/PC_G_EU4" CO2="5001.73" CO="139.55" HC="0.75" NOx="2.20" PMx="0.11" fuel="2.15" electricity="0.00" noise="67.89" route="always_left" type="DEFAULT_VEHTYPE" waiting="0.00" lane="1fi_0" pos="12.26" speed="4.72" angle="90.00" x="12.26" y="498.35"/>
        <vehicle id="always_right.0" eclass="HBEFA3/PC_G_EU4" CO2="0.00" CO="0.00" HC="0.00" NOx="0.00" PMx="0.00" fuel="0.00" electricity="0.00" noise="60.57" route="always_right" type="DEFAULT_VEHTYPE" waiting="0.00" lane="3fi_0" pos="112.39" speed="10.24" angle="0.00" x="501.65" y="112.39"/>
        <vehicle id="always_right.1" eclass="HBEFA3/PC_G_EU4" CO2="4218.86" CO="130.64" HC="0.69" NOx="1.84" PMx="0.09" fuel="1.81" electricity="0.00" noise="65.66" route="always_right" type="DEFAULT_VEHTYPE" waiting="0.00" lane="3fi_0" pos="11.69" speed="4.21" angle="0.00" x="501.65" y="11.69"/>
        <vehicle id="horizontal.0" eclass="HBEFA3/PC_G_EU4" CO2="0.00" CO="0.00" HC="0.00" NOx="0.00" PMx="0.00" fuel="0.00" electricity="0.00" noise="60.43" route="horizontal" type="DEFAULT_VEHTYPE" waiting="0.00" lane="2fi_0" pos="106.86" speed="10.05" angle="270.00" x="893.14" y="501.65"/>
        <vehicle id="horizontal.1" eclass="HBEFA3/PC_G_EU4" CO2="4723.32" CO="146.41" HC="0.78" NOx="2.09" PMx="0.10" fuel="2.03" electricity="0.00" noise="68.38" route="horizontal" type="DEFAULT_VEHTYPE" waiting="0.00" lane="2fi_0" pos="10.28" speed="3.83" angle="270.00" x="989.72" y="501.65"/>
        <vehicle id="vertical.0" eclass="HBEFA3/PC_G_EU4" CO2="0.00" CO="0.00" HC="0.00" NOx="0.00" PMx="0.00" fuel="0.00" electricity="0.00" noise="60.26" route="vertical" type="DEFAULT_VEHTYPE" waiting="0.00" lane="3fi_0" pos="77.41" speed="10.18" angle="0.00" x="501.65" y="77.41"/>
    </timestep>
    <timestep time="113.00">
        <vehicle id="always_left.0" eclass="HBEFA3/PC_G_EU4" CO2="0.00" CO="0.00" HC="0.00" NOx="0.00" PMx="0.00" fuel="0.00" electricity="0.00" noise="61.49" route="always_left" type="DEFAULT_VEHTYPE" waiting="0.00" lane="1fi_0" pos="115.91" speed="10.21" angle="90.00" x="115.91" y="498.35"/>
        <vehicle id="always_left.1" eclass="HBEFA3/PC_G_EU4" CO2="4329.18" CO="107.50" HC="0.59" NOx="1.84" PMx="0.08" fuel="1.86" electricity="0.00" noise="64.63" route="always_left" type="DEFAULT_VEHTYPE" waiting="0.00" lane="1fi_0" pos="18.37" speed="6.11" angle="90.00" x="18.37" y="498.35"/>
        <vehicle id="always_right.0" eclass="HBEFA3/PC_G_EU4" CO2="2749.59" CO="28.09" HC="0.19" NOx="0.98" PMx="0.03" fuel="1.18" electricity="0.00" noise="62.79" route="always_right" type="DEFAULT_VEHTYPE" waiting="0.00" lane="3fi_0" pos="122.86" speed="10.47" angle="0.00" x="501.65" y="122.86"/>
        <vehicle id="always_right.1" eclass="HBEFA3/PC_G_EU4" CO2="6199.39" CO="140.06" HC="0.79" NOx="2.71" PMx="0.13" fuel="2.66" electricity="0.00" noise="69.12" route="always_right" type="DEFAULT_VEHTYPE" waiting="0.00" lane="3fi_0" pos="18.28" speed="6.59" angle="0.00" x="501.65" y="18.28"/>
        <vehicle id="horizontal.0" eclass="HBEFA3/PC_G_EU4" CO2="0.00" CO="0.00" HC="0.00" NOx="0.00" PMx="0.00" fuel="0.00" electricity="0.00" noise="61.12" route="horizontal" type="DEFAULT_VEHTYPE" waiting="0.00" lane="2fi_0" pos="116.73" speed="9.86" angle="270.00" x="883.27" y="501.65"/>
        <vehicle id="horizontal.1" eclass="HBEFA3/PC_G_EU4" CO2="5585.71" CO="134.34" HC="0.74" NOx="2.44" PMx="0.12" fuel="2.40" electricity="0.00" noise="68.09" route="horizontal" type="DEFAULT_VEHTYPE" waiting="0.00" lane="2fi_0" pos="16.31" speed="6.03" angle="270.00" x="983.69" y="501.65"/>
        <vehicle id="vertical.0" eclass="HBEFA3/PC_G_EU4" CO2="2598.39" CO="26.00" HC="0.18" NOx="0.92" PMx="0.02" fuel="1.12" electricity="0.00" noise="62.56" route="vertical" type="DEFAULT_VEHTYPE" waiting="0.00" lane="3fi_0" pos="87.76" speed="10.36" angle="0.00" x="501.65" y="87.76"/>
        <vehicle id="vertical.1" eclass="HBEFA3/PC_G_EU4" CO2="2624.72" CO="164.78" HC="0.81" NOx="1.20" PMx="0.07" fuel="1.13" electricity="0.00" noise="55.94" route="vertical" type="DEFAULT_VEHTYPE" waiting="0.00" lane="3fi_0" pos="5.10" speed="0.00" angle="0.00" x="501.65" y="5.10"/>
    </timestep>
    <timestep time="114.00">
        <vehicle id="always_left.0" eclass="HBEFA3/PC_G_EU4" CO2="0.00" CO="0.00" HC="0.00" NOx="0.00" PMx="0.00" fuel="0.00" electricity="0.00" noise="60.72" route="always_left" type="DEFAULT_VEHTYPE" waiting="0.00" lane="1fi_0" pos="125.78" speed="9.87" angle="90.00" x="125.78" y="498.35"/>
        <vehicle id="always_left.1" eclass="HBEFA3/PC_G_EU4" CO2="7302.58" CO="141.35" HC="0.82" NOx="3.18" PMx="0.15" fuel="3.14" electricity="0.00" noise="69.90" route="always_left" type="DEFAULT_VEHTYPE" waiting="0.00" lane="1fi_0" pos="26.84" speed="8.47" angle="90.00" x="26.84" y="498.35"/>
        <vehicle id="always_right.0" eclass="HBEFA3/PC_G_EU4" CO2="3894.47" CO="46.42" HC="0.30" NOx="1.51" PMx="0.06" fuel="1.67" electricity="0.00" noise="64.39" route="always_right" type="DEFAULT_VEHTYPE" waiting="0.00" lane="3fi_0" pos="133.93" speed="11.07" angle="0.00" x="501.65" y="133.93"/>
        <vehicle id="always_right.1" eclass="HBEFA3/PC_G_EU4" CO2="6263.37" CO="119.88" HC="0.69" NOx="2.69" PMx="0.12" fuel="2.69" electricity="0.00" noise="67.90" route="always_right" type="DEFAULT_VEHTYPE" waiting="0.00" lane="3fi_0" pos="26.75" speed="8.48" angle="0.00" x="501.65" y="26.75"/>
        <vehicle id="horizontal.0" eclass="HBEFA3/PC_G_EU4" CO2="3228.71" CO="39.70" HC="0.25" NOx="1.22" PMx="0.04" fuel="1.39" electricity="0.00" noise="63.26" route="horizontal" type="DEFAULT_VEHTYPE" waiting="0.00" lane="2fi_0" pos="127.00" speed="10.28" angle="270.00" x="873.00" y="501.65"/>
        <vehicle id="horizontal.1" eclass="HBEFA3/PC_G_EU4" CO2="7370.15" CO="143.13" HC="0.83" NOx="3.22" PMx="0.15" fuel="3.17" electricity="0.00" noise="70.05" route="horizontal" type="DEFAULT_VEHTYPE" waiting="0.00" lane="2fi_0" pos="24.74" speed="8.43" angle="270.00" x="975.26" y="501.65"/>
        <vehicle id="vertical.0" eclass="HBEFA3/PC_G_EU4" CO2="3234.04" CO="35.61" HC="0.24" NOx="1.21" PMx="0.04" fuel="1.39" electricity="0.00" noise="63.49" route="vertical" type="DEFAULT_VEHTYPE" waiting="0.00" lane="3fi_0" pos="98.51" speed="10.75" angle="0.00" x="501.65" y="98.51"/>
        <vehicle id="vertical.1" eclass="HBEFA3/PC_G_EU4" CO2="2965.31" CO="147.97" HC="0.74" NOx="1.33" PMx="0.07" fuel="1.27" electricity="0.00" noise="62.60" route="vertical" type="DEFAULT_VEHTYPE" waiting="0.00" lane="3fi_0" pos="6.49" speed="1.39" angle="0.00" x="501.65" y="6.49"/>
    </timestep>
    <timestep time="115.00">
        <vehicle id="always_left.0" eclass="HBEFA3/PC_G_EU4" CO2="5465.01" CO="79.18" HC="0.49" NOx="2.25" PMx="0.10" fuel="2.35" electricity="0.00" noise="66.30" route="always_left" type="DEFAULT_VEHTYPE" waiting="0.00" lane="1fi_0" pos="136.81" speed="11.02" angle="90.00" x="136.81" y="498.35"/>
        <vehicle id="always_left.1" eclass="HBEFA3/PC_G_EU4" CO2="8827.60" CO="150.00" HC="0.90" NOx="3.84" PMx="0.19" fuel="3.79" electricity="0.00" noise="71.04" route="always_left" type="DEFAULT_VEHTYPE" waiting="0.00" lane="1fi_0" pos="37.67" speed="10.84" angle="90.00" x="37.67" y="498.35"/>
        <vehicle id="always_right.0" eclass="HBEFA3/PC_G_EU4" CO2="0.00" CO="0.00" HC="0.00" NOx="0.00" PMx="0.00" fuel="0.00" electricity="0.00" noise="61.21" route="always_right" type="DEFAULT_VEHTYPE" waiting="0.00" lane="3fi_0" pos="144.60" speed="10.67" angle="0.00" x="501.65" y="144.60"/>
        <vehicle id="always_right.1" eclass="HBEFA3/PC_G_EU4" CO2="7142.71" CO="119.70" HC="0.72" NOx="3.06" PMx="0.14" fuel="3.07" electricity="0.00" noise="68.72" route="always_right" type="DEFAULT_VEHTYPE" waiting="0.00" lane="3fi_0" pos="37.09" speed="10.34" angle="0.00" x="501.65" y="37.09"/>
        <vehicle id="horizontal.0" eclass="HBEFA3/PC_G_EU4" CO2="0.00" CO="0.00" HC="0.00" NOx="0.00" PMx="0.00" fuel="0.00" electricity="0.00" noise="60.39" route="horizontal" type="DEFAULT_VEHTYPE" waiting="0.00" lane="2fi_0" pos="136.82" speed="9.82" angle="270.00" x="863.18" y="501.65"/>
        <vehicle id="horizontal.1" eclass="HBEFA3/PC_G_EU4" CO2="8203.10" CO="138.99" HC="0.83" NOx="3.55" PMx="0.17" fuel="3.53" electricity="0.00" noise="70.21" route="horizontal" type="DEFAULT_VEHTYPE" waiting="0.00" lane="2fi_0" pos="35.36" speed="10.62" angle="270.00" x="964.64" y="501.65"/>
        <vehicle id="vertical.0" eclass="HBEFA3/PC_G_EU4" CO2="2865.88" CO="25.88" HC="0.18" NOx="1.03" PMx="0.03" fuel="1.23" electricity="0.00" noise="63.22" route="vertical" type="DEFAULT_VEHTYPE" waiting="0.00" lane="3fi_0" pos="109.51" speed="11.00" angle="0.00" x="501.65" y="109.51"/>
        <vehicle id="vertical.1" eclass="HBEFA3/PC_G_EU4" CO2="4512.92" CO="143.62" HC="0.76" NOx="1.99" PMx="0.10" fuel="1.94" electricity="0.00" noise="67.66" route="vertical" type="DEFAULT_VEHTYPE" waiting="0.00" lane="3fi_0" pos="10.22" speed="3.72" angle="0.00" x="501.65" y="10.22"/>
    </timestep>
    <timestep time="116.00">
        <vehicle id="always_left.0" eclass="HBEFA3/PC_G_EU4" CO2="0.00" CO="0.00" HC="0.00" NOx="0.00" PMx="0.00" fuel="0.00" electricity="0.00" noise="62.01" route="always_left" type="DEFAULT_VEHTYPE" waiting="0.00" lane="1fi_0" pos="147.68" speed="10.88" angle="90.00" x="147.68" y="498.35"/>
        <vehicle id="always_left.1" eclass="HBEFA3/PC_G_EU4" CO2="2761.51" CO="23.30" HC="0.17" NOx="0.97" PMx="0.03" fuel="1.19" electricity="0.00" noise="63.15" route="always_left" type="DEFAULT_VEHTYPE" waiting="0.00" lane="1fi_0" pos="48.72" speed="11.05" angle="90.00" x="48.72" y="498.35"/>
        <vehicle id="always_right.0" eclass="HBEFA3/PC_G_EU4" CO2="0.00" CO="0.00" HC="0.00" NOx="0.00" PMx="0.00" fuel="0.00" electricity="0.00" noise="62.20" route="always_right" type="DEFAULT_VEHTYPE" waiting="0.00" lane="3fi_0" pos="155.25" speed="10.65" angle="0.00" x="501.65" y="155.25"/>