<?xml version="1.0" encoding="UTF-8"?>

<!-- generated on 2025-04-22 10:44:44 by Eclipse SUMO sumo Version v1_22_0+1617-22b86256498
This data file and the accompanying materials
are made available under the terms of the Eclipse Public License v2.0
which accompanies this distribution, and is available at
http://www.eclipse.org/legal/epl-v20.html
This file may also be made available under the following Secondary
Licenses when the conditions for such availability set forth in the Eclipse
Public License 2.0 are satisfied: GNU General Public License, version 2
or later which is available at
https://www.gnu.org/licenses/old-licenses/gpl-2.0-standalone.html
SPDX-License-Identifier: EPL-2.0 OR GPL-2.0-or-later
<sumoConfiguration xmlns:xsi="http://www.w3.org/2001/XMLSchema-instance" xsi:noNamespaceSchemaLocation="http://sumo.dlr.de/xsd/sumoConfiguration.xsd">

    <input>
        <net-file value="net.net.xml"/>
        <route-files value="input_routes.rou.xml"/>
    </input>

    <output>
        <write-license value="true"/>
        <emission-output value="emissions.xml"/>
    </output>

    <time>
        <begin value="0"/>
        <end value="120"/>
    </time>

    <processing>
        <default.speeddev value="0"/>
    </processing>

    <report>
        <xml-validation value="never"/>
        <duration-log.disable value="true"/>
        <no-step-log value="true"/>
    </report>

</sumoConfiguration>
-->

<emission-export xmlns:xsi="http://www.w3.org/2001/XMLSchema-instance" xsi:noNamespaceSchemaLocation="http://sumo.dlr.de/xsd/emission_file.xsd">
    <timestep time="0.00"/>
    <timestep time="1.00"/>
    <timestep time="2.00"/>
    <timestep time="3.00"/>
    <timestep time="4.00"/>
    <timestep time="5.00"/>
    <timestep time="6.00"/>
    <timestep time="7.00"/>
    <timestep time="8.00"/>
    <timestep time="9.00"/>
    <timestep time="10.00"/>
    <timestep time="11.00"/>
    <timestep time="12.00"/>
    <timestep time="13.00"/>
    <timestep time="14.00"/>
    <timestep time="15.00"/>
    <timestep time="16.00"/>
    <timestep time="17.00"/>
    <timestep time="18.00"/>
    <timestep time="19.00"/>
    <timestep time="20.00"/>
    <timestep time="21.00"/>
    <timestep time="22.00"/>
    <timestep time="23.00"/>
    <timestep time="24.00"/>
    <timestep time="25.00"/>
    <timestep time="26.00"/>
    <timestep time="27.00"/>
    <timestep time="28.00"/>
    <timestep time="29.00"/>
    <timestep time="30.00"/>
    <timestep time="31.00"/>
    <timestep time="32.00"/>
    <timestep time="33.00"/>
    <timestep time="34.00"/>
    <timestep time="35.00"/>
    <timestep time="36.00"/>
    <timestep time="37.00"/>
    <timestep time="38.00"/>
    <timestep time="39.00"/>
    <timestep time="40.00"/>
    <timestep time="41.00"/>
    <timestep time="42.00"/>
    <timestep time="43.00"/>
    <timestep time="44.00"/>
    <timestep time="45.00"/>
    <timestep time="46.00"/>
    <timestep time="47.00"/>
    <timestep time="48.00"/>
    <timestep time="49.00"/>
    <timestep time="50.00"/>
    <timestep time="51.00"/>
    <timestep time="52.00"/>
    <timestep time="53.00"/>
    <timestep time="54.00"/>
    <timestep time="55.00"/>
    <timestep time="56.00"/>
    <timestep time="57.00"/>
    <timestep time="58.00"/>
    <timestep time="59.00"/>
    <timestep time="60.00"/>
    <timestep time="61.00"/>
    <timestep time="62.00"/>
    <timestep time="63.00"/>
    <timestep time="64.00"/>
    <timestep time="65.00"/>
    <timestep time="66.00"/>
    <timestep time="67.00"/>
    <timestep time="68.00"/>
    <timestep time="69.00"/>
    <timestep time="70.00"/>
    <timestep time="71.00"/>
    <timestep time="72.00"/>
    <timestep time="73.00"/>
    <timestep time="74.00"/>
    <timestep time="75.00"/>
    <timestep time="76.00"/>
    <timestep time="77.00"/>
    <timestep time="78.00"/>
    <timestep time="79.00"/>
    <timestep time="80.00"/>
    <timestep time="81.00"/>
    <timestep time="82.00"/>
    <timestep time="83.00"/>
    <timestep time="84.00"/>
    <timestep time="85.00"/>
    <timestep time="86.00"/>
    <timestep time="87.00"/>
    <timestep time="88.00"/>
    <timestep time="89.00"/>
    <timestep time="90.00"/>
    <timestep time="91.00"/>
    <timestep time="92.00"/>
    <timestep time="93.00"/>
    <timestep time="94.00"/>
    <timestep time="95.00"/>
    <timestep time="96.00"/>
    <timestep time="97.00"/>
    <timestep time="98.00"/>
    <timestep time="99.00"/>
    <timestep time="100.00">
        <vehicle id="always_left.0" eclass="HBEFA4/PC_petrol_Euro-4" CO2="1521.00" CO="0.00" HC="0.00" NOx="0.61" PMx="0.00" fuel="493.10" electricity="0.00" noise="55.94" route="always_left" type="DEFAULT_VEHTYPE" waiting="0.00" lane="1fi_0" pos="5.10" speed="0.00" angle="90.00" x="5.10" y="498.35"/>
        <vehicle id="always_right.0" eclass="HBEFA4/PC_petrol_Euro-4" CO2="1521.00" CO="0.00" HC="0.00" NOx="0.61" PMx="0.00" fuel="493.10" electricity="0.00" noise="55.94" route="always_right" type="DEFAULT_VEHTYPE" waiting="0.00" lane="3fi_0" pos="5.10" speed="0.00" angle="0.00" x="501.65" y="5.10"/>
        <vehicle id="horizontal.0" eclass="HBEFA4/PC_petrol_Euro-4" CO2="1521.00" CO="0.00" HC="0.00" NOx="0.61" PMx="0.00" fuel="493.10" electricity="0.00" noise="55.94" route="horizontal" type="DEFAULT_VEHTYPE" waiting="0.00" lane="2fi_0" pos="5.10" speed="0.00" angle="270.00" x="994.90" y="501.65"/>
    </timestep>
    <timestep time="101.00">
        <vehicle id="always_left.0" eclass="HBEFA4/PC_petrol_Euro-4" CO2="3397.81" CO="1.32" HC="0.01" NOx="0.79" PMx="0.05" fuel="1101.47" electricity="0.00" noise="65.12" route="always_left" type="DEFAULT_VEHTYPE" waiting="0.00" lane="1fi_0" pos="7.02" speed="1.92" angle="90.00" x="7.02" y="498.35"/>
        <vehicle id="always_right.0" eclass="HBEFA4/PC_petrol_Euro-4" CO2="3985.09" CO="2.45" HC="0.02" NOx="0.89" PMx="0.07" fuel="1291.85" electricity="0.00" noise="67.24" route="always_right" type="DEFAULT_VEHTYPE" waiting="0.00" lane="3fi_0" pos="7.46" speed="2.36" angle="0.00" x="501.65" y="7.46"/>
        <vehicle id="horizontal.0" eclass="HBEFA4/PC_petrol_Euro-4" CO2="2695.42" CO="0.43" HC="0.00" NOx="0.69" PMx="0.04" fuel="873.79" electricity="0.00" noise="62.24" route="horizontal" type="DEFAULT_VEHTYPE" waiting="0.00" lane="2fi_0" pos="6.42" speed="1.32" angle="270.00" x="993.58" y="501.65"/>
    </timestep>
    <timestep time="102.00">
        <vehicle id="always_left.0" eclass="HBEFA4/PC_petrol_Euro-4" CO2="3689.90" CO="4.33" HC="0.03" NOx="0.95" PMx="0.10" fuel="1196.18" electricity="0.00" noise="64.97" route="always_left" type="DEFAULT_VEHTYPE" waiting="0.00" lane="1fi_0" pos="10.66" speed="3.64" angle="90.00" x="10.66" y="498.35"/>
        <vehicle id="always_right.0" eclass="HBEFA4/PC_petrol_Euro-4" CO2="3270.86" CO="3.62" HC="0.02" NOx="0.89" PMx="0.11" fuel="1060.35" electricity="0.00" noise="63.44" route="always_right" type="DEFAULT_VEHTYPE" waiting="0.00" lane="3fi_0" pos="11.19" speed="3.72" angle="0.00" x="501.65" y="11.19"/>
        <vehicle id="horizontal.0" eclass="HBEFA4/PC_petrol_Euro-4" CO2="3746.30" CO="3.63" HC="0.02" NOx="0.93" PMx="0.09" fuel="1214.46" electricity="0.00" noise="65.48" route="horizontal" type="DEFAULT_VEHTYPE" waiting="0.00" lane="2fi_0" pos="9.62" speed="3.20" angle="270.00" x="990.38" y="501.65"/>
    </timestep>
    <timestep time="103.00">
        <vehicle id="always_left.0" eclass="HBEFA4/PC_petrol_Euro-4" CO2="4738.68" CO="12.23" HC="0.08" NOx="1.29" PMx="0.17" fuel="1536.19" electricity="0.00" noise="67.06" route="always_left" type="DEFAULT_VEHTYPE" waiting="0.00" lane="1fi_0" pos="16.30" speed="5.64" angle="90.00" x="16.30" y="498.35"/>
        <vehicle id="always_right.0" eclass="HBEFA4/PC_petrol_Euro-4" CO2="4053.26" CO="8.94" HC="0.06" NOx="1.12" PMx="0.16" fuel="1313.99" electricity="0.00" noise="65.27" route="always_right" type="DEFAULT_VEHTYPE" waiting="0.00" lane="3fi_0" pos="16.53" speed="5.34" angle="0.00" x="501.65" y="16.53"/>
        <vehicle id="horizontal.0" eclass="HBEFA4/PC_petrol_Euro-4" CO2="4616.10" CO="10.55" HC="0.07" NOx="1.23" PMx="0.16" fuel="1496.45" electricity="0.00" noise="66.96" route="horizontal" type="DEFAULT_VEHTYPE" waiting="0.00" lane="2fi_0" pos="14.84" speed="5.22" angle="270.00" x="985.16" y="501.65"/>
        <vehicle id="vertical.0" eclass="HBEFA4/PC_petrol_Euro-4" CO2="1521.00" CO="0.00" HC="0.00" NOx="0.61" PMx="0.00" fuel="493.10" electricity="0.00" noise="55.94" route="vertical" type="DEFAULT_VEHTYPE" waiting="0.00" lane="3fi_0" pos="5.10" speed="0.00" angle="0.00" x="501.65" y="5.10"/>
    </timestep>
    <timestep time="104.00">
        <vehicle id="always_left.0" eclass="HBEFA4/PC_petrol_Euro-4" CO2="6571.24" CO="30.86" HC="0.20" NOx="1.93" PMx="0.28" fuel="2130.28" electricity="0.00" noise="70.06" route="always_left" type="DEFAULT_VEHTYPE" waiting="0.00" lane="1fi_0" pos="24.39" speed="8.09" angle="90.00" x="24.39" y="498.35"/>
        <vehicle id="always_right.0" eclass="HBEFA4/PC_petrol_Euro-4" CO2="4788.41" CO="16.90" HC="0.11" NOx="1.40" PMx="0.22" fuel="1552.32" electricity="0.00" noise="66.54" route="always_right" type="DEFAULT_VEHTYPE" waiting="0.00" lane="3fi_0" pos="23.60" speed="7.07" angle="0.00" x="501.65" y="23.60"/>
        <vehicle id="horizontal.0" eclass="HBEFA4/PC_petrol_Euro-4" CO2="4644.50" CO="15.65" HC="0.10" NOx="1.35" PMx="0.22" fuel="1505.67" electricity="0.00" noise="66.26" route="horizontal" type="DEFAULT_VEHTYPE" waiting="0.00" lane="2fi_0" pos="21.74" speed="6.90" angle="270.00" x="978.26" y="501.65"/>
        <vehicle id="vertical.0" eclass="HBEFA4/PC_petrol_Euro-4" CO2="3171.18" CO="0.97" HC="0.01" NOx="0.76" PMx="0.05" fuel="1028.01" electricity="0.00" noise="64.24" route="vertical" type="DEFAULT_VEHTYPE" waiting="0.00" lane="3fi_0" pos="6.83" speed="1.73" angle="0.00" x="501.65" y="6.83"/>
    </timestep>
    <timestep time="105.00">
        <vehicle id="always_left.0" eclass="HBEFA4/PC_petrol_Euro-4" CO2="7137.32" CO="45.95" HC="0.30" NOx="2.29" PMx="0.37" fuel="2313.80" electricity="0.00" noise="70.08" route="always_left" type="DEFAULT_VEHTYPE" waiting="0.00" lane="1fi_0" pos="34.67" speed="10.28" angle="90.00" x="34.67" y="498.35"/>
        <vehicle id="always_right.0" eclass="HBEFA4/PC_petrol_Euro-4" CO2="6831.21" CO="38.77" HC="0.26" NOx="2.12" PMx="0.33" fuel="2214.56" electricity="0.00" noise="69.92" route="always_right" type="DEFAULT_VEHTYPE" waiting="0.00" lane="3fi_0" pos="32.94" speed="9.34" angle="0.00" x="501.65" y="32.94"/>
        <vehicle id="horizontal.0" eclass="HBEFA4/PC_petrol_Euro-4" CO2="6801.28" CO="37.81" HC="0.25" NOx="2.09" PMx="0.32" fuel="2204.86" electricity="0.00" noise="69.93" route="horizontal" type="DEFAULT_VEHTYPE" waiting="0.00" lane="2fi_0" pos="30.93" speed="9.19" angle="270.00" x="969.07" y="501.65"/>
        <vehicle id="vertical.0" eclass="HBEFA4/PC_petrol_Euro-4" CO2="4147.59" CO="5.57" HC="0.04" NOx="1.03" PMx="0.11" fuel="1344.55" electricity="0.00" noise="66.48" route="vertical" type="DEFAULT_VEHTYPE" waiting="0.00" lane="3fi_0" pos="10.62" speed="3.79" angle="0.00" x="501.65" y="10.62"/>
    </timestep>
    <timestep time="106.00">
        <vehicle id="always_left.0" eclass="HBEFA4/PC_petrol_Euro-4" CO2="2080.16" CO="5.56" HC="0.04" NOx="0.75" PMx="0.29" fuel="674.37" electricity="0.00" noise="62.37" route="always_left" type="DEFAULT_VEHTYPE" waiting="0.00" lane="1fi_0" pos="45.07" speed="10.39" angle="90.00" x="45.07" y="498.35"/>
        <vehicle id="always_right.0" eclass="HBEFA4/PC_petrol_Euro-4" CO2="5610.38" CO="35.85" HC="0.24" NOx="1.86" PMx="0.37" fuel="1818.80" electricity="0.00" noise="67.47" route="always_right" type="DEFAULT_VEHTYPE" waiting="0.00" lane="3fi_0" pos="43.77" speed="10.83" angle="0.00" x="501.65" y="43.77"/>
        <vehicle id="horizontal.0" eclass="HBEFA4/PC_petrol_Euro-4" CO2="5560.12" CO="34.85" HC="0.23" NOx="1.83" PMx="0.36" fuel="1802.50" electricity="0.00" noise="67.40" route="horizontal" type="DEFAULT_VEHTYPE" waiting="0.00" lane="2fi_0" pos="41.61" speed="10.68" angle="270.00" x="958.39" y="501.65"/>
        <vehicle id="vertical.0" eclass="HBEFA4/PC_petrol_Euro-4" CO2="5695.91" CO="18.17" HC="0.12" NOx="1.55" PMx="0.20" fuel="1846.50" electricity="0.00" noise="69.25" route="vertical" type="DEFAULT_VEHTYPE" waiting="0.00" lane="3fi_0" pos="16.86" speed="6.24" angle="0.00" x="501.65" y="16.86"/>
    </timestep>
    <timestep time="107.00">
        <vehicle id="always_left.0" eclass="HBEFA4/PC_petrol_Euro-4" CO2="2808.63" CO="12.01" HC="0.08" NOx="0.98" PMx="0.32" fuel="910.52" electricity="0.00" noise="63.49" route="always_left" type="DEFAULT_VEHTYPE" waiting="0.00" lane="1fi_0" pos="55.84" speed="10.78" angle="90.00" x="55.84" y="498.35"/>
        <vehicle id="always_right.0" eclass="HBEFA4/PC_petrol_Euro-4" CO2="0.00" CO="0.00" HC="0.00" NOx="0.00" PMx="0.00" fuel="0.00" electricity="0.00" noise="61.21" route="always_right" type="DEFAULT_VEHTYPE" waiting="0.00" lane="3fi_0" pos="54.26" speed="10.49" angle="0.00" x="501.65" y="54.26"/>
        <vehicle id="horizontal.0" eclass="HBEFA4/PC_petrol_Euro-4" CO2="2654.59" CO="10.99" HC="0.07" NOx="0.94" PMx="0.32" fuel="860.59" electricity="0.00" noise="63.41" route="horizontal" type="DEFAULT_VEHTYPE" waiting="0.00" lane="2fi_0" pos="52.61" speed="10.99" angle="270.00" x="947.39" y="501.65"/>
        <vehicle id="vertical.0" eclass="HBEFA4/PC_petrol_Euro-4" CO2="4147.99" CO="14.85" HC="0.10" NOx="1.26" PMx="0.23" fuel="1344.71" electricity="0.00" noise="65.00" route="vertical" type="DEFAULT_VEHTYPE" waiting="0.00" lane="3fi_0" pos="24.40" speed="7.54" angle="0.00" x="501.65" y="24.40"/>
    </timestep>
    <timestep time="108.00">
        <vehicle id="always_left.0" eclass="HBEFA4/PC_petrol_Euro-4" CO2="0.00" CO="0.00" HC="0.00" NOx="0.00" PMx="0.00" fuel="0.00" electricity="0.00" noise="61.05" route="always_left" type="DEFAULT_VEHTYPE" waiting="0.00" lane="1fi_0" pos="66.24" speed="10.40" angle="90.00" x="66.24" y="498.35"/>
        <vehicle id="always_right.0" eclass="HBEFA4/PC_petrol_Euro-4" CO2="0.00" CO="0.00" HC="0.00" NOx="0.00" PMx="0.00" fuel="0.00" electricity="0.00" noise="60.77" route="always_right" type="DEFAULT_VEHTYPE" waiting="0.00" lane="3fi_0" pos="64.35" speed="10.09" angle="0.00" x="501.65" y="64.35"/>
        <vehicle id="horizontal.0" eclass="HBEFA4/PC_petrol_Euro-4" CO2="0.00" CO="0.00" HC="0.00" NOx="0.00" PMx="0.00" fuel="0.00" electricity="0.00" noise="60.05" route="horizontal" type="DEFAULT_VEHTYPE" waiting="0.00" lane="2fi_0" pos="62.84" speed="10.24" angle="270.00" x="937.16" y="501.65"/>
        <vehicle id="vertical.0" eclass="HBEFA4/PC_petrol_Euro-4" CO2="7640.55" CO="48.40" HC="0.32" NOx="2.41" PMx="0.37" fuel="2476.94" electricity="0.00" noise="71.08" route="vertical" type="DEFAULT_VEHTYPE" waiting="0.00" lane="3fi_0" pos="34.40" speed="10.01" angle="0.00" x="501.65" y="34.40"/>
    </timestep>
    <timestep time="109.00">
        <vehicle id="always_left.0" eclass="HBEFA4/PC_petrol_Euro-4" CO2="3499.10" CO="18.36" HC="0.12" NOx="1.20" PMx="0.34" fuel="1134.36" electricity="0.00" noise="64.49" route="always_left" type="DEFAULT_VEHTYPE" waiting="0.00" lane="1fi_0" pos="77.27" speed="11.04" angle="90.00" x="77.27" y="498.35"/>
        <vehicle id="always_right.0" eclass="HBEFA4/PC_petrol_Euro-4" CO2="2865.87" CO="12.10" HC="0.08" NOx="1.00" PMx="0.31" fuel="929.08" electricity="0.00" noise="63.44" route="always_right" type="DEFAULT_VEHTYPE" waiting="0.00" lane="3fi_0" pos="74.87" speed="10.51" angle="0.00" x="501.65" y="74.87"/>
        <vehicle id="horizontal.0" eclass="HBEFA4/PC_petrol_Euro-4" CO2="2988.68" CO="13.40" HC="0.09" NOx="1.04" PMx="0.32" fuel="968.89" electricity="0.00" noise="63.68" route="horizontal" type="DEFAULT_VEHTYPE" waiting="0.00" lane="2fi_0" pos="73.54" speed="10.70" angle="270.00" x="926.46" y="501.65"/>
        <vehicle id="vertical.0" eclass="HBEFA4/PC_petrol_Euro-4" CO2="4660.17" CO="28.59" HC="0.19" NOx="1.57" PMx="0.36" fuel="1510.76" electricity="0.00" noise="66.08" route="vertical" type="DEFAULT_VEHTYPE" waiting="0.00" lane="3fi_0" pos="45.50" speed="11.09" angle="0.00" x="501.65" y="45.50"/>
    </timestep>
    <timestep time="110.00">
        <vehicle id="always_left.0" eclass="HBEFA4/PC_petrol_Euro-4" CO2="0.00" CO="0.00" HC="0.00" NOx="0.00" PMx="0.00" fuel="0.00" electricity="0.00" noise="59.99" route="always_left" type="DEFAULT_VEHTYPE" waiting="0.00" lane="1fi_0" pos="87.52" speed="10.25" angle="90.00" x="87.52" y="498.35"/>
        <vehicle id="always_left.1" eclass="HBEFA4/PC_petrol_Euro-4" CO2="1521.00" CO="0.00" HC="0.00" NOx="0.61" PMx="0.00" fuel="493.10" electricity="0.00" noise="55.94" route="always_left" type="DEFAULT_VEHTYPE" waiting="0.00" lane="1fi_0" pos="5.10" speed="0.00" angle="90.00" x="5.10" y="498.35"/>
        <vehicle id="always_right.0" eclass="HBEFA4/PC_petrol_Euro-4" CO2="0.00" CO="0.00" HC="0.00" NOx="0.00" PMx="0.00" fuel="0.00" electricity="0.00" noise="60.35" route="always_right" type="DEFAULT_VEHTYPE" waiting="0.00" lane="3fi_0" pos="84.85" speed="9.99" angle="0.00" x="501.65" y="84.85"/>
        <vehicle id="always_right.1" eclass="HBEFA4/PC_petrol_Euro-4" CO2="1521.00" CO="0.00" HC="0.00" NOx="0.61" PMx="0.00" fuel="493.10" electricity="0.00" noise="55.94" route="always_right" type="DEFAULT_VEHTYPE" waiting="0.00" lane="3fi_0" pos="5.10" speed="0.00" angle="0.00" x="501.65" y="5.10"/>
        <vehicle id="horizontal.0" eclass="HBEFA4/PC_petrol_Euro-4" CO2="2101.21" CO="6.06" HC="0.04" NOx="0.76" PMx="0.31" fuel="681.19" electricity="0.00" noise="62.65" route="horizontal" type="DEFAULT_VEHTYPE" waiting="0.00" lane="2fi_0" pos="84.34" speed="10.80" angle="270.00" x="915.66" y="501.65"/>
        <vehicle id="horizontal.1" eclass="HBEFA4/PC_petrol_Euro-4" CO2="1521.00" CO="0.00" HC="0.00" NOx="0.61" PMx="0.00" fuel="493.10" electricity="0.00" noise="55.94" route="horizontal" type="DEFAULT_VEHTYPE" waiting="0.00" lane="2fi_0" pos="5.10" speed="0.00" angle="270.00" x="994.90" y="501.65"/>
        <vehicle id="vertical.0" eclass="HBEFA4/PC_petrol_Euro-4" CO2="0.00" CO="0.00" HC="0.00" NOx="0.00" PMx="0.00" fuel="0.00" electricity="0.00" noise="59.76" route="vertical" type="DEFAULT_VEHTYPE" waiting="0.00" lane="3fi_0" pos="55.70" speed="10.20" angle="0.00" x="501.65" y="55.70"/>
    </timestep>
    <timestep time="111.00">
        <vehicle id="always_left.0" eclass="HBEFA4/PC_petrol_Euro-4" CO2="1869.78" CO="3.78" HC="0.03" NOx="0.69" PMx="0.29" fuel="606.17" electricity="0.00" noise="62.04" route="always_left" type="DEFAULT_VEHTYPE" waiting="0.00" lane="1fi_0" pos="97.79" speed="10.27" angle="90.00" x="97.79" y="498.35"/>
        <vehicle id="always_left.1" eclass="HBEFA4/PC_petrol_Euro-4" CO2="3620.45" CO="1.71" HC="0.01" NOx="0.83" PMx="0.06" fuel="1173.65" electricity="0.00" noise="65.95" route="always_left" type="DEFAULT_VEHTYPE" waiting="0.00" lane="1fi_0" pos="7.19" speed="2.09" angle="90.00" x="7.19" y="498.35"/>
        <vehicle id="always_right.0" eclass="HBEFA4/PC_petrol_Euro-4" CO2="2033.06" CO="4.95" HC="0.03" NOx="0.74" PMx="0.28" fuel="659.10" electricity="0.00" noise="62.13" route="always_right" type="DEFAULT_VEHTYPE" waiting="0.00" lane="3fi_0" pos="94.93" speed="10.08" angle="0.00" x="501.65" y="94.93"/>
        <vehicle id="always_right.1" eclass="HBEFA4/PC_petrol_Euro-4" CO2="2856.48" CO="0.58" HC="0.00" NOx="0.71" PMx="0.04" fuel="925.99" electricity="0.00" noise="62.94" route="always_right" type="DEFAULT_VEHTYPE" waiting="0.00" lane="3fi_0" pos="6.56" speed="1.46" angle="0.00" x="501.65" y="6.56"/>
        <vehicle id="horizontal.0" eclass="HBEFA4/PC_petrol_Euro-4" CO2="2373.70" CO="8.58" HC="0.06" NOx="0.85" PMx="0.32" fuel="769.53" electricity="0.00" noise="63.08" route="horizontal" type="DEFAULT_VEHTYPE" waiting="0.00" lane="2fi_0" pos="95.34" speed="11.00" angle="270.00" x="904.66" y="501.65"/>
        <vehicle id="horizontal.1" eclass="HBEFA4/PC_petrol_Euro-4" CO2="4288.79" CO="3.18" HC="0.02" NOx="0.95" PMx="0.07" fuel="1390.30" electricity="0.00" noise="68.26" route="horizontal" type="DEFAULT_VEHTYPE" waiting="0.00" lane="2fi_0" pos="7.67" speed="2.57" angle="270.00" x="992.33" y="501.65"/>
        <vehicle id="vertical.0" eclass="HBEFA4/PC_petrol_Euro-4" CO2="1526.30" CO="0.99" HC="0.01" NOx="0.59" PMx="0.28" fuel="494.82" electricity="0.00" noise="61.51" route="vertical" type="DEFAULT_VEHTYPE" waiting="0.00" lane="3fi_0" pos="65.79" speed="10.09" angle="0.00" x="501.65" y="65.79"/>
    </timestep>
    <timestep time="112.00">
        <vehicle id="always_left.0" eclass="HBEFA4/PC_petrol_Euro-4" CO2="1621.77" CO="1.77" HC="0.01" NOx="0.61" PMx="0.28" fuel="525.77" electricity="0.00" noise="61.69" route="always_left" type="DEFAULT_VEHTYPE" waiting="0.00" lane="1fi_0" pos="107.98" speed="10.19" angle="90.00" x="107.98" y="498.35"/>
        <vehicle id="always_left.1" eclass="HBEFA4/PC_petrol_Euro-4" CO2="3723.25" CO="4.70" HC="0.03" NOx="0.96" PMx="0.11" fuel="1207.00" electricity="0.00" noise="64.99" route="always_left" type="DEFAULT_VEHTYPE" waiting="0.00" lane="1fi_0" pos="11.00" speed="3.80" angle="90.00" x="11.00" y="498.35"/>
        <vehicle id="always_right.0" eclass="HBEFA4/PC_petrol_Euro-4" CO2="3643.60" CO="19.10" HC="0.13" NOx="1.24" PMx="0.33" fuel="1181.21" electricity="0.00" noise="64.59" route="always_right" type="DEFAULT_VEHTYPE" waiting="0.00" lane="3fi_0" pos="105.73" speed="10.80" angle="0.00" x="501.65" y="105.73"/>
        <vehicle id="always_right.1" eclass="HBEFA4/PC_petrol_Euro-4" CO2="4323.30" CO="5.70" HC="0.04" NOx="1.05" PMx="0.11" fuel="1401.51" electricity="0.00" noise="67.18" route="always_right" type="DEFAULT_VEHTYPE" waiting="0.00" lane="3fi_0" pos="10.25" speed="3.69" angle="0.00" x="501.65" y="10.25"/>
        <vehicle id="horizontal.0" eclass="HBEFA4/PC_petrol_Euro-4" CO2="0.00" CO="0.00" HC="0.00" NOx="0.00" PMx="0.00" fuel="0.00" electricity="0.00" noise="60.04" route="horizontal" type="DEFAULT_VEHTYPE" waiting="0.00" lane="2fi_0" pos="105.58" speed="10.24" angle="270.00" x="894.42" y="501.65"/>
        <vehicle id="horizontal.1" eclass="HBEFA4/PC_petrol_Euro-4" CO2="3982.70" CO="6.45" HC="0.04" NOx="1.05" PMx="0.13" fuel="1291.11" electricity="0.00" noise="65.54" route="horizontal" type="DEFAULT_VEHTYPE" waiting="0.00" lane="2fi_0" pos="12.03" speed="4.36" angle="270.00" x="987.97" y="501.65"/>
        <vehicle id="vertical.0" eclass="HBEFA4/PC_petrol_Euro-4" CO2="3600.59" CO="18.71" HC="0.12" NOx="1.23" PMx="0.33" fuel="1167.26" electricity="0.00" noise="64.53" route="vertical" type="DEFAULT_VEHTYPE" waiting="0.00" lane="3fi_0" pos="76.57" speed="10.79" angle="0.00" x="501.65" y="76.57"/>
    </timestep>
    <timestep time="113.00">
        <vehicle id="always_left.0" eclass="HBEFA4/PC_petrol_Euro-4" CO2="2973.00" CO="13.20" HC="0.09" NOx="1.03" PMx="0.32" fuel="963.81" electricity="0.00" noise="63.64" route="always_left" type="DEFAULT_VEHTYPE" waiting="0.00" lane="1fi_0" pos="118.63" speed="10.65" angle="90.00" x="118.63" y="498.35"/>
        <vehicle id="always_left.1" eclass="HBEFA4/PC_petrol_Euro-4" CO2="3671.20" CO="7.30" HC="0.05" NOx="1.04" PMx="0.15" fuel="1190.14" electricity="0.00" noise="64.22" route="always_left" type="DEFAULT_VEHTYPE" waiting="0.00" lane="1fi_0" pos="16.19" speed="5.19" angle="90.00" x="16.19" y="498.35"/>
        <vehicle id="always_right.0" eclass="HBEFA4/PC_petrol_Euro-4" CO2="0.00" CO="0.00" HC="0.00" NOx="0.00" PMx="0.00" fuel="0.00" electricity="0.00" noise="61.43" route="always_right" type="DEFAULT_VEHTYPE" waiting="0.00" lane="3fi_0" pos="116.26" speed="10.53" angle="0.00" x="501.65" y="116.26"/>
        <vehicle id="always_right.1" eclass="HBEFA4/PC_petrol_Euro-4" CO2="5874.20" CO="18.96" HC="0.12" NOx="1.59" PMx="0.20" fuel="1904.30" electricity="0.00" noise="69.71" route="always_right" type="DEFAULT_VEHTYPE" waiting="0.00" lane="3fi_0" pos="16.50" speed="6.24" angle="0.00" x="501.65" y="16.50"/>
        <vehicle id="horizontal.0" eclass="HBEFA4/PC_petrol_Euro-4" CO2="0.00" CO="0.00" HC="0.00" NOx="0.00" PMx="0.00" fuel="0.00" electricity="0.00" noise="61.02" route="horizontal" type="DEFAULT_VEHTYPE" waiting="0.00" lane="2fi_0" pos="115.55" speed="9.98" angle="270.00" x="884.45" y="501.65"/>
        <vehicle id="horizontal.1" eclass="HBEFA4/PC_petrol_Euro-4" CO2="4445.38" CO="12.34" HC="0.08" NOx="1.25" PMx="0.19" fuel="1441.11" electricity="0.00" noise="66.05" route="horizontal" type="DEFAULT_VEHTYPE" waiting="0.00" lane="2fi_0" pos="18.11" speed="6.08" angle="270.00" x="981.89" y="501.65"/>
        <vehicle id="vertical.0" eclass="HBEFA4/PC_petrol_Euro-4" CO2="1400.49" CO="0.10" HC="0.00" NOx="0.54" PMx="0.29" fuel="454.04" electricity="0.00" noise="61.75" route="vertical" type="DEFAULT_VEHTYPE" waiting="0.00" lane="3fi_0" pos="87.19" speed="10.61" angle="0.00" x="501.65" y="87.19"/>
        <vehicle id="vertical.1" eclass="HBEFA4/PC_petrol_Euro-4" CO2="1521.00" CO="0.00" HC="0.00" NOx="0.61" PMx="0.00" fuel="493.10" electricity="0.00" noise="55.94" route="vertical" type="DEFAULT_VEHTYPE" waiting="0.00" lane="3fi_0" pos="5.10" speed="0.00" angle="0.00" x="501.65" y="5.10"/>
    </timestep>
    <timestep time="114.00">
        <vehicle id="always_left.0" eclass="HBEFA4/PC_petrol_Euro-4" CO2="0.00" CO="0.00" HC="0.00" NOx="0.00" PMx="0.00" fuel="0.00" electricity="0.00" noise="59.58" route="always_left" type="DEFAULT_VEHTYPE" waiting="0.00" lane="1fi_0" pos="128.47" speed="9.84" angle="90.00" x="128.47" y="498.35"/>
        <vehicle id="always_left.1" eclass="HBEFA4/PC_petrol_Euro-4" CO2="4074.37" CO="12.09" HC="0.08" NOx="1.20" PMx="0.20" fuel="1320.84" electricity="0.00" noise="64.96" route="always_left" type="DEFAULT_VEHTYPE" waiting="0.00" lane="1fi_0" pos="22.79" speed="6.60" angle="90.00" x="22.79" y="498.35"/>
        <vehicle id="always_right.0" eclass="HBEFA4/PC_petrol_Euro-4" CO2="2809.12" CO="12.20" HC="0.08" NOx="0.98" PMx="0.32" fuel="910.69" electricity="0.00" noise="63.55" route="always_right" type="DEFAULT_VEHTYPE" waiting="0.00" lane="3fi_0" pos="127.17" speed="10.91" angle="0.00" x="501.65" y="127.17"/>
        <vehicle id="always_right.1" eclass="HBEFA4/PC_petrol_Euro-4" CO2="5075.42" CO="21.41" HC="0.14" NOx="1.53" PMx="0.26" fuel="1645.37" electricity="0.00" noise="66.92" route="always_right" type="DEFAULT_VEHTYPE" waiting="0.00" lane="3fi_0" pos="24.45" speed="7.96" angle="0.00" x="501.65" y="24.45"/>
        <vehicle id="horizontal.0" eclass="HBEFA4/PC_petrol_Euro-4" CO2="2282.51" CO="6.99" HC="0.05" NOx="0.81" PMx="0.29" fuel="739.97" electricity="0.00" noise="62.50" route="horizontal" type="DEFAULT_VEHTYPE" waiting="0.00" lane="2fi_0" pos="125.73" speed="10.18" angle="270.00" x="874.27" y="501.65"/>
        <vehicle id="horizontal.1" eclass="HBEFA4/PC_petrol_Euro-4" CO2="4663.47" CO="18.00" HC="0.12" NOx="1.40" PMx="0.24" fuel="1511.82" electricity="0.00" noise="66.11" route="horizontal" type="DEFAULT_VEHTYPE" waiting="0.00" lane="2fi_0" pos="25.74" speed="7.64" angle="270.00" x="974.26" y="501.65"/>
        <vehicle id="vertical.0" eclass="HBEFA4/PC_petrol_Euro-4" CO2="0.00" CO="0.00" HC="0.00" NOx="0.00" PMx="0.00" fuel="0.00" electricity="0.00" noise="61.37" route="vertical" type="DEFAULT_VEHTYPE" waiting="0.00" lane="3fi_0" pos="97.56" speed="10.37" angle="0.00" x="501.65" y="97.56"/>
        <vehicle id="vertical.1" eclass="HBEFA4/PC_petrol_Euro-4" CO2="2997.13" CO="0.74" HC="0.00" NOx="0.73" PMx="0.04" fuel="971.59" electricity="0.00" noise="63.53" route="vertical" type="DEFAULT_VEHTYPE" waiting="0.00" lane="3fi_0" pos="6.69" speed="1.59" angle="0.00" x="501.65" y="6.69"/>
    </timestep>
    <timestep time="115.00">
        <vehicle id="always_left.0" eclass="HBEFA4/PC_petrol_Euro-4" CO2="1865.24" CO="3.51" HC="0.02" NOx="0.69" PMx="0.27" fuel="604.70" electricity="0.00" noise="61.78" route="always_left" type="DEFAULT_VEHTYPE" waiting="0.00" lane="1fi_0" pos="138.34" speed="9.87" angle="90.00" x="138.34" y="498.35"/>
        <vehicle id="always_left.1" eclass="HBEFA4/PC_petrol_Euro-4" CO2="5125.00" CO="22.84" HC="0.15" NOx="1.56" PMx="0.27" fuel="1661.44" electricity="0.00" noise="66.94" route="always_left" type="DEFAULT_VEHTYPE" waiting="0.00" lane="1fi_0" pos="31.07" speed="8.28" angle="90.00" x="31.07" y="498.35"/>
        <vehicle id="always_right.0" eclass="HBEFA4/PC_petrol_Euro-4" CO2="1767.88" CO="3.28" HC="0.02" NOx="0.66" PMx="0.30" fuel="573.14" electricity="0.00" noise="62.33" route="always_right" type="DEFAULT_VEHTYPE" waiting="0.00" lane="3fi_0" pos="138.04" speed="10.88" angle="0.00" x="501.65" y="138.04"/>
        <vehicle id="always_right.1" eclass="HBEFA4/PC_petrol_Euro-4" CO2="6127.70" CO="35.84" HC="0.24" NOx="1.95" PMx="0.34" fuel="1986.50" electricity="0.00" noise="68.46" route="always_right" type="DEFAULT_VEHTYPE" waiting="0.00" lane="3fi_0" pos="34.27" speed="9.82" angle="0.00" x="501.65" y="34.27"/>
        <vehicle id="horizontal.0" eclass="HBEFA4/PC_petrol_Euro-4" CO2="3282.75" CO="15.96" HC="0.11" NOx="1.13" PMx="0.32" fuel="1064.23" electricity="0.00" noise="64.09" route="horizontal" type="DEFAULT_VEHTYPE" waiting="0.00" lane="2fi_0" pos="136.48" speed="10.75" angle="270.00" x="863.52" y="501.65"/>
        <vehicle id="horizontal.1" eclass="HBEFA4/PC_petrol_Euro-4" CO2="5500.87" CO="29.15" HC="0.19" NOx="1.73" PMx="0.31" fuel="1783.29" electricity="0.00" noise="67.45" route="horizontal" type="DEFAULT_VEHTYPE" waiting="0.00" lane="2fi_0" pos="35.06" speed="9.31" angle="270.00" x="964.94" y="501.65"/>
        <vehicle id="vertical.0" eclass="HBEFA4/PC_petrol_Euro-4" CO2="3617.01" CO="19.42" HC="0.13" NOx="1.24" PMx="0.34" fuel="1172.59" electricity="0.00" noise="64.65" route="vertical" type="DEFAULT_VEHTYPE" waiting="0.00" lane="3fi_0" pos="108.61" speed="11.05" angle="0.00" x="501.65" y="108.61"/>