<?xml version="1.0" encoding="UTF-8"?>

<!-- generated on Mon Mar  3 10:28:56 2014 by SUMO sumo Version dev-SVN-r15793
<?xml version="1.0" encoding="UTF-8"?>

<configuration xmlns:xsi="http://www.w3.org/2001/XMLSchema-instance" xsi:noNamespaceSchemaLocation="http://sumo-sim.org/xsd/sumoConfiguration.xsd">

    <input>
        <net-file value="net.net.xml"/>
        <additional-files value="input_routes.rou.xml,input_additional.add.xml,input_additional2.add.xml"/>
    </input>

    <time>
        <begin value="0"/>
        <end value="1000"/>
    </time>

    <processing>
        <time-to-teleport value="-1"/>
    </processing>

    <report>
        <xml-validation value="never"/>
        <no-duration-log value="true"/>
        <no-step-log value="true"/>
    </report>

</configuration>
-->

<meandata xmlns:xsi="http://www.w3.org/2001/XMLSchema-instance" xsi:noNamespaceSchemaLocation="http://sumo-sim.org/xsd/meandata_file.xsd">
    <interval begin="600.00" end="615.00" id="dump_15">
        <edge id="3/1to2/1" sampledSeconds="795.00" noise="73.18" traveltime="100000.00"/>
        <edge id="4/1to3/1" sampledSeconds="375.00" noise="69.92" traveltime="100000.00"/>
    </interval>
    <interval begin="615.00" end="630.00" id="dump_15">
        <edge id="3/1to2/1" sampledSeconds="795.00" noise="73.18" traveltime="100000.00"/>
        <edge id="4/1to3/1" sampledSeconds="375.00" noise="69.92" traveltime="100000.00"/>
    </interval>
    <interval begin="630.00" end="645.00" id="dump_15">
        <edge id="3/1to2/1" sampledSeconds="795.00" noise="73.18" traveltime="100000.00"/>
        <edge id="4/1to3/1" sampledSeconds="375.00" noise="69.92" traveltime="100000.00"/>
    </interval>
    <interval begin="645.00" end="660.00" id="dump_15">
        <edge id="3/1to2/1" sampledSeconds="795.00" noise="73.18" traveltime="100000.00"/>
        <edge id="4/1to3/1" sampledSeconds="375.00" noise="69.92" traveltime="100000.00"/>
    </interval>
</meandata>
