<?xml version="1.0" encoding="UTF-8"?>

<!-- generated on 10/25/16 10:22:35 by SUMO Version dev-SVN-r21767
<?xml version="1.0" encoding="UTF-8"?>

<configuration xmlns:xsi="http://www.w3.org/2001/XMLSchema-instance" xsi:noNamespaceSchemaLocation="http://sumo.dlr.de/xsd/sumoConfiguration.xsd">

    <input>
        <net-file value="three_split.net.xml"/>
        <route-files value="input_routes.rou.xml"/>
        <additional-files value="input_additional.add.xml"/>
    </input>

    <output>
        <vehroute-output value="vehroutes.xml"/>
    </output>

    <report>
        <xml-validation value="never"/>
        <duration-log.disable value="true"/>
        <no-step-log value="true"/>
    </report>

    <mesoscopic>
        <mesosim value="true"/>
    </mesoscopic>

</configuration>
-->

<meandata xmlns:xsi="http://www.w3.org/2001/XMLSchema-instance" xsi:noNamespaceSchemaLocation="http://sumo.dlr.de/xsd/meandata_file.xsd">
    <interval begin="0.00" end="100.00" id="expect10vehs">
        <edge id="beg" sampledSeconds="149.31" traveltime="18.16" overlapTraveltime="18.34" density="2.99" occupancy="1.49" waitingTime="0.00" speed="27.54" departed="10" arrived="0" entered="0" left="6" laneChangedFrom="0" laneChangedTo="0"/>
        <edge id="beg2left" sampledSeconds="0.00" departed="0" arrived="0" entered="0" left="0" laneChangedFrom="0" laneChangedTo="0"/>
        <edge id="beg2right" sampledSeconds="0.00" departed="0" arrived="0" entered="0" left="0" laneChangedFrom="0" laneChangedTo="0"/>
        <edge id="end" sampledSeconds="27.03" traveltime="17.98" overlapTraveltime="18.16" density="0.54" occupancy="0.27" waitingTime="0.00" speed="27.80" departed="0" arrived="0" entered="2" left="1" laneChangedFrom="0" laneChangedTo="0"/>
        <edge id="left" sampledSeconds="0.00" departed="0" arrived="0" entered="0" left="0" laneChangedFrom="0" laneChangedTo="0"/>
        <edge id="left2end" sampledSeconds="0.00" departed="0" arrived="0" entered="0" left="0" laneChangedFrom="0" laneChangedTo="0"/>
        <edge id="middle" sampledSeconds="115.60" traveltime="35.97" overlapTraveltime="36.15" density="1.16" occupancy="0.58" waitingTime="0.00" speed="27.80" departed="0" arrived="0" entered="6" left="2" laneChangedFrom="0" laneChangedTo="0"/>
        <edge id="rend" sampledSeconds="17.98" traveltime="17.98" overlapTraveltime="18.16" density="0.36" occupancy="0.18" waitingTime="0.00" speed="27.80" departed="0" arrived="1" entered="1" left="0" laneChangedFrom="0" laneChangedTo="0"/>
        <edge id="right" sampledSeconds="0.00" departed="0" arrived="0" entered="0" left="0" laneChangedFrom="0" laneChangedTo="0"/>
        <edge id="right2end" sampledSeconds="0.00" departed="0" arrived="0" entered="0" left="0" laneChangedFrom="0" laneChangedTo="0"/>
    </interval>
    <interval begin="200.00" end="400.00" id="expect31vehs">
        <edge id="beg" sampledSeconds="529.79" traveltime="18.27" overlapTraveltime="18.45" density="5.30" occupancy="2.65" waitingTime="0.00" speed="27.37" departed="31" arrived="0" entered="0" left="27" laneChangedFrom="0" laneChangedTo="0"/>
        <edge id="beg2left" sampledSeconds="0.00" departed="0" arrived="0" entered="0" left="0" laneChangedFrom="0" laneChangedTo="0"/>
        <edge id="beg2right" sampledSeconds="0.00" departed="0" arrived="0" entered="0" left="0" laneChangedFrom="0" laneChangedTo="0"/>
        <edge id="end" sampledSeconds="319.50" traveltime="17.98" overlapTraveltime="18.16" density="3.19" occupancy="1.60" waitingTime="0.00" speed="27.80" departed="0" arrived="0" entered="19" left="16" laneChangedFrom="0" laneChangedTo="0"/>
        <edge id="left" sampledSeconds="0.00" departed="0" arrived="0" entered="0" left="0" laneChangedFrom="0" laneChangedTo="0"/>
        <edge id="left2end" sampledSeconds="0.00" departed="0" arrived="0" entered="0" left="0" laneChangedFrom="0" laneChangedTo="0"/>
        <edge id="middle" sampledSeconds="843.75" traveltime="35.97" overlapTraveltime="36.15" density="4.22" occupancy="2.11" waitingTime="0.00" speed="27.80" departed="0" arrived="0" entered="27" left="19" laneChangedFrom="0" laneChangedTo="0"/>
        <edge id="rend" sampledSeconds="241.74" traveltime="17.99" overlapTraveltime="18.16" density="2.42" occupancy="1.21" waitingTime="0.00" speed="27.80" departed="0" arrived="11" entered="16" left="0" laneChangedFrom="0" laneChangedTo="0"/>
        <edge id="right" sampledSeconds="0.00" departed="0" arrived="0" entered="0" left="0" laneChangedFrom="0" laneChangedTo="0"/>
        <edge id="right2end" sampledSeconds="0.00" departed="0" arrived="0" entered="0" left="0" laneChangedFrom="0" laneChangedTo="0"/>
    </interval>
    <interval begin="400.00" end="700.00" id="expect100vehs">
        <edge id="beg" sampledSeconds="1782.32" traveltime="18.02" overlapTraveltime="18.20" density="11.88" occupancy="5.94" waitingTime="0.00" speed="27.75" departed="100" arrived="0" entered="0" left="98" laneChangedFrom="0" laneChangedTo="0"/>
        <edge id="beg2left" sampledSeconds="0.00" departed="0" arrived="0" entered="0" left="0" laneChangedFrom="0" laneChangedTo="0"/>
        <edge id="beg2right" sampledSeconds="0.00" departed="0" arrived="0" entered="0" left="0" laneChangedFrom="0" laneChangedTo="0"/>
        <edge id="end" sampledSeconds="1691.09" traveltime="17.98" overlapTraveltime="18.16" density="11.27" occupancy="5.64" waitingTime="0.00" speed="27.80" departed="0" arrived="0" entered="95" left="93" laneChangedFrom="0" laneChangedTo="0"/>
        <edge id="left" sampledSeconds="0.00" departed="0" arrived="0" entered="0" left="0" laneChangedFrom="0" laneChangedTo="0"/>
        <edge id="left2end" sampledSeconds="0.00" departed="0" arrived="0" entered="0" left="0" laneChangedFrom="0" laneChangedTo="0"/>
        <edge id="middle" sampledSeconds="3467.59" traveltime="35.97" overlapTraveltime="36.15" density="11.56" occupancy="5.78" waitingTime="0.00" speed="27.80" departed="0" arrived="0" entered="98" left="95" laneChangedFrom="0" laneChangedTo="0"/>
        <edge id="rend" sampledSeconds="1663.68" traveltime="17.98" overlapTraveltime="18.16" density="11.09" occupancy="5.55" waitingTime="0.00" speed="27.80" departed="0" arrived="92" entered="93" left="0" laneChangedFrom="0" laneChangedTo="0"/>
        <edge id="right" sampledSeconds="0.00" departed="0" arrived="0" entered="0" left="0" laneChangedFrom="0" laneChangedTo="0"/>
        <edge id="right2end" sampledSeconds="0.00" departed="0" arrived="0" entered="0" left="0" laneChangedFrom="0" laneChangedTo="0"/>
    </interval>
    <interval begin="2000.00" end="2100.00" id="expect10vehs">
        <edge id="beg" sampledSeconds="180.65" traveltime="18.06" overlapTraveltime="18.25" density="3.61" occupancy="1.81" waitingTime="0.00" speed="27.68" departed="56" arrived="0" entered="0" left="56" laneChangedFrom="0" laneChangedTo="0" vaporized="46"/>
        <edge id="beg2left" sampledSeconds="0.00" departed="0" arrived="0" entered="0" left="0" laneChangedFrom="0" laneChangedTo="0"/>
        <edge id="beg2right" sampledSeconds="0.00" departed="0" arrived="0" entered="0" left="0" laneChangedFrom="0" laneChangedTo="0"/>
        <edge id="end" sampledSeconds="179.85" traveltime="17.99" overlapTraveltime="18.16" density="3.60" occupancy="1.80" waitingTime="0.00" speed="27.80" departed="0" arrived="0" entered="10" left="10" laneChangedFrom="0" laneChangedTo="0"/>
        <edge id="left" sampledSeconds="0.00" departed="0" arrived="0" entered="0" left="0" laneChangedFrom="0" laneChangedTo="0"/>
        <edge id="left2end" sampledSeconds="0.00" departed="0" arrived="0" entered="0" left="0" laneChangedFrom="0" laneChangedTo="0"/>
        <edge id="middle" sampledSeconds="359.70" traveltime="35.97" overlapTraveltime="36.15" density="3.60" occupancy="1.80" waitingTime="0.00" speed="27.80" departed="0" arrived="0" entered="10" left="10" laneChangedFrom="0" laneChangedTo="0"/>
        <edge id="rend" sampledSeconds="163.75" traveltime="17.98" overlapTraveltime="18.16" density="3.28" occupancy="1.64" waitingTime="0.00" speed="27.80" departed="0" arrived="6" entered="10" left="0" laneChangedFrom="0" laneChangedTo="0"/>
        <edge id="right" sampledSeconds="0.00" departed="0" arrived="0" entered="0" left="0" laneChangedFrom="0" laneChangedTo="0"/>
        <edge id="right2end" sampledSeconds="0.00" departed="0" arrived="0" entered="0" left="0" laneChangedFrom="0" laneChangedTo="0"/>
    </interval>
    <interval begin="2200.00" end="2400.00" id="expect31vehs">
        <edge id="beg" sampledSeconds="663.96" traveltime="18.06" overlapTraveltime="18.24" density="6.64" occupancy="3.32" waitingTime="0.00" speed="27.68" departed="111" arrived="0" entered="0" left="122" laneChangedFrom="0" laneChangedTo="0" vaporized="80"/>
        <edge id="beg2left" sampledSeconds="0.00" departed="0" arrived="0" entered="0" left="0" laneChangedFrom="0" laneChangedTo="0"/>
        <edge id="beg2right" sampledSeconds="0.00" departed="0" arrived="0" entered="0" left="0" laneChangedFrom="0" laneChangedTo="0"/>
        <edge id="end" sampledSeconds="1200.27" traveltime="17.98" overlapTraveltime="18.16" density="12.00" occupancy="6.00" waitingTime="0.00" speed="27.80" departed="0" arrived="0" entered="62" left="72" laneChangedFrom="0" laneChangedTo="0"/>
        <edge id="left" sampledSeconds="0.00" departed="0" arrived="0" entered="0" left="0" laneChangedFrom="0" laneChangedTo="0"/>
        <edge id="left2end" sampledSeconds="0.00" departed="0" arrived="0" entered="0" left="0" laneChangedFrom="0" laneChangedTo="0"/>
        <edge id="middle" sampledSeconds="1861.44" traveltime="35.97" overlapTraveltime="36.15" density="9.31" occupancy="4.65" waitingTime="0.00" speed="27.80" departed="0" arrived="0" entered="42" left="62" laneChangedFrom="0" laneChangedTo="0"/>
        <edge id="rend" sampledSeconds="1379.97" traveltime="17.98" overlapTraveltime="18.16" density="13.80" occupancy="6.90" waitingTime="0.00" speed="27.80" departed="0" arrived="82" entered="72" left="0" laneChangedFrom="0" laneChangedTo="0"/>
        <edge id="right" sampledSeconds="0.00" departed="0" arrived="0" entered="0" left="0" laneChangedFrom="0" laneChangedTo="0"/>
        <edge id="right2end" sampledSeconds="0.00" departed="0" arrived="0" entered="0" left="0" laneChangedFrom="0" laneChangedTo="0"/>
    </interval>
    <interval begin="2400.00" end="2700.00" id="expect100vehs">
        <edge id="beg" sampledSeconds="1806.48" traveltime="18.06" overlapTraveltime="18.25" density="12.04" occupancy="6.02" waitingTime="0.00" speed="27.68" departed="166" arrived="0" entered="0" left="166" laneChangedFrom="0" laneChangedTo="0" vaporized="66"/>
        <edge id="beg2left" sampledSeconds="0.00" departed="0" arrived="0" entered="0" left="0" laneChangedFrom="0" laneChangedTo="0"/>
        <edge id="beg2right" sampledSeconds="0.00" departed="0" arrived="0" entered="0" left="0" laneChangedFrom="0" laneChangedTo="0"/>
        <edge id="end" sampledSeconds="1798.50" traveltime="17.98" overlapTraveltime="18.16" density="11.99" occupancy="5.99" waitingTime="0.00" speed="27.80" departed="0" arrived="0" entered="100" left="100" laneChangedFrom="0" laneChangedTo="0"/>
        <edge id="left" sampledSeconds="0.00" departed="0" arrived="0" entered="0" left="0" laneChangedFrom="0" laneChangedTo="0"/>
        <edge id="left2end" sampledSeconds="0.00" departed="0" arrived="0" entered="0" left="0" laneChangedFrom="0" laneChangedTo="0"/>
        <edge id="middle" sampledSeconds="3597.00" traveltime="35.97" overlapTraveltime="36.15" density="11.99" occupancy="6.00" waitingTime="0.00" speed="27.80" departed="0" arrived="0" entered="100" left="100" laneChangedFrom="0" laneChangedTo="0"/>
        <edge id="rend" sampledSeconds="1798.50" traveltime="17.98" overlapTraveltime="18.16" density="11.99" occupancy="5.99" waitingTime="0.00" speed="27.80" departed="0" arrived="100" entered="100" left="0" laneChangedFrom="0" laneChangedTo="0"/>
        <edge id="right" sampledSeconds="0.00" departed="0" arrived="0" entered="0" left="0" laneChangedFrom="0" laneChangedTo="0"/>
        <edge id="right2end" sampledSeconds="0.00" departed="0" arrived="0" entered="0" left="0" laneChangedFrom="0" laneChangedTo="0"/>
    </interval>
</meandata>
