<?xml version="1.0" encoding="UTF-8"?>

<!-- generated on Tue Dec  6 12:31:00 2016 by SUMO Version dev-SVN-r22190
<?xml version="1.0" encoding="UTF-8"?>

<configuration xmlns:xsi="http://www.w3.org/2001/XMLSchema-instance" xsi:noNamespaceSchemaLocation="http://sumo.dlr.de/xsd/sumoConfiguration.xsd">

    <input>
        <net-file value="three_split.net.xml"/>
        <route-files value="input_routes.rou.xml"/>
        <additional-files value="input_additional.add.xml"/>
    </input>

    <output>
        <vehroute-output value="vehroutes.xml"/>
    </output>

    <report>
        <xml-validation value="never"/>
        <duration-log.disable value="true"/>
        <no-step-log value="true"/>
    </report>

    <mesoscopic>
        <mesosim value="true"/>
    </mesoscopic>

</configuration>
-->

<calibratorstats xmlns:xsi="http://www.w3.org/2001/XMLSchema-instance" xsi:noNamespaceSchemaLocation="http://sumo.dlr.de/xsd/calibratorstats_file.xsd">
    <interval begin="0.00" end="100.00" id="calibtest" nVehContrib="10" removed="0" inserted="7" cleared="0" flow="360.00" aspiredFlow="360.00" speed="26.76" aspiredSpeed="-1.00"/>
    <interval begin="200.00" end="400.00" id="calibtest" nVehContrib="31" removed="0" inserted="25" cleared="0" flow="558.00" aspiredFlow="558.00" speed="25.89" aspiredSpeed="-1.00"/>
    <interval begin="400.00" end="700.00" id="calibtest" nVehContrib="100" removed="0" inserted="92" cleared="0" flow="1200.00" aspiredFlow="1200.00" speed="27.56" aspiredSpeed="-1.00"/>
    <interval begin="2000.00" end="2100.00" id="calibtest" nVehContrib="10" removed="46" inserted="0" cleared="0" flow="360.00" aspiredFlow="360.00" speed="27.20" aspiredSpeed="-1.00"/>
    <interval begin="2200.00" end="2400.00" id="calibtest" nVehContrib="31" removed="80" inserted="0" cleared="0" flow="558.00" aspiredFlow="558.00" speed="27.16" aspiredSpeed="-1.00"/>
    <interval begin="2400.00" end="2700.00" id="calibtest" nVehContrib="100" removed="66" inserted="0" cleared="0" flow="1200.00" aspiredFlow="1200.00" speed="27.20" aspiredSpeed="-1.00"/>
</calibratorstats>
