<?xml version="1.0" encoding="UTF-8"?>

<!-- generated on 2022-03-22 10:15:10 by Eclipse SUMO GUI Version v1_12_0+1580-9c18c03b069
<configuration xmlns:xsi="http://www.w3.org/2001/XMLSchema-instance" xsi:noNamespaceSchemaLocation="http://sumo.dlr.de/xsd/sumoConfiguration.xsd">

    <input>
        <net-file value="D:\SUMO\tests\netedit\bugs\additionals\ticket3879\net.netedit"/>
        <additional-files value="D:\SUMO\tests\netedit\bugs\additionals\ticket3879\additionals.netedit"/>
    </input>

</configuration>
-->

<detector xmlns:xsi="http://www.w3.org/2001/XMLSchema-instance" xsi:noNamespaceSchemaLocation="http://sumo.dlr.de/xsd/det_e1_file.xsd">
    <interval begin="0.00" end="1.00" id="e1" nVehContrib="0" flow="0.00" occupancy="0.00" speed="-1.00" harmonicMeanSpeed="-1.00" length="-1.00" nVehEntered="0"/>
</detector>
