<?xml version="1.0"?>

<!-- generated on 01/16/08 08:47:29 by SUMO sumo Version 0.9.7
<configuration>

   <input>
      <net-file>three_split.net.xml</net-file>
      <additional-files>input_routes.rou.xml,input_additional.add.xml</additional-files>
   </input>

   <output>
      <vehroute-output>vehroutes.xml</vehroute-output>
   </output>

   <processing>
      <no-duration-log>true</no-duration-log>
      <no-step-log>true</no-step-log>
   </processing>

</configuration>
-->

<vehicleroutes>
   <vehicle id="route0_0" emittedAt="0" endedAt="76">
      <route>beg middle end rend</route>
   </vehicle>

   <vehicle id="route0_1" emittedAt="6" endedAt="84">
      <route>beg middle end rend</route>
   </vehicle>

   <vehicle id="route0_2" emittedAt="13" endedAt="90">
      <route>beg middle end rend</route>
   </vehicle>

   <vehicle id="route0_3" emittedAt="19" endedAt="97">
      <route>beg middle end rend</route>
   </vehicle>

   <vehicle id="route0_4" emittedAt="25" endedAt="102">
      <route>beg middle end rend</route>
   </vehicle>

   <vehicle id="route1_0" emittedAt="3" endedAt="201">
      <route>beg beg2left left left2end end rend</route>
   </vehicle>

   <vehicle id="route1_1" emittedAt="9" endedAt="208">
      <route>beg beg2left left left2end end rend</route>
   </vehicle>

   <vehicle id="route1_2" emittedAt="16" endedAt="214">
      <route>beg beg2left left left2end end rend</route>
   </vehicle>

   <vehicle id="route1_3" emittedAt="22" endedAt="219">
      <route>beg beg2left left left2end end rend</route>
   </vehicle>

   <vehicle id="route1_4" emittedAt="28" endedAt="224">
      <route>beg beg2left left left2end end rend</route>
   </vehicle>

</vehicleroutes>
