<?xml version="1.0"?>

<!-- generated on 07/21/10 12:30:36 by SUMO sumo Version dev-SVN-r8163
<configuration>

    <input>
        <net-file value="three_split.net.xml"/>
        <additional-files value="input_routes.rou.xml,input_additional.add.xml"/>
    </input>

    <output>
        <vehroute-output value="vehroutes.xml"/>
    </output>

    <report>
        <no-duration-log value="true"/>
        <no-step-log value="true"/>
    </report>

</configuration>
-->

<routes>
    <vehicle id="route0_0" depart="0.00" arrival="74.00">
        <route edges="beg middle end rend"/>
    </vehicle>

    <vehicle id="route0_1" depart="14.00" arrival="88.00">
        <route edges="beg middle end rend"/>
    </vehicle>

    <vehicle id="route0_2" depart="28.00" arrival="102.00">
        <route edges="beg middle end rend"/>
    </vehicle>

    <vehicle id="route0_3" depart="42.00" arrival="116.00">
        <route edges="beg middle end rend"/>
    </vehicle>

    <vehicle id="route0_4" depart="56.00" arrival="130.00">
        <route edges="beg middle end rend"/>
    </vehicle>

    <vehicle id="route1_0" depart="7.00" arrival="195.00">
        <route edges="beg beg2left left left2end end rend"/>
    </vehicle>

    <vehicle id="route1_1" depart="21.00" arrival="209.00">
        <route edges="beg beg2left left left2end end rend"/>
    </vehicle>

    <vehicle id="route1_2" depart="35.00" arrival="223.00">
        <route edges="beg beg2left left left2end end rend"/>
    </vehicle>

    <vehicle id="route1_3" depart="49.00" arrival="237.00">
        <route edges="beg beg2left left left2end end rend"/>
    </vehicle>

    <vehicle id="route1_4" depart="63.00" arrival="251.00">
        <route edges="beg beg2left left left2end end rend"/>
    </vehicle>

</routes>
