<?xml version="1.0"?>

<!-- generated on 12/16/08 09:53:55 by SUMO sumo Version dev-SVN-r6410
<configuration>

   <input>
      <net-file>three_split.net.xml</net-file>
      <additional-files>input_routes.rou.xml,input_additional.add.xml</additional-files>
   </input>

   <output>
      <vehroute-output>vehroutes.xml</vehroute-output>
   </output>

   <processing>
      <no-duration-log>true</no-duration-log>
      <no-step-log>true</no-step-log>
   </processing>

</configuration>
-->

<routes>
   <vehicle id="route0_0" depart="0" arrival="74">
      <route>beg middle end rend</route>
   </vehicle>

   <vehicle id="route0_1" depart="5" arrival="80">
      <route>beg middle end rend</route>
   </vehicle>

   <vehicle id="route0_2" depart="11" arrival="86">
      <route>beg middle end rend</route>
   </vehicle>

   <vehicle id="route0_3" depart="16" arrival="91">
      <route>beg middle end rend</route>
   </vehicle>

   <vehicle id="route0_4" depart="22" arrival="97">
      <route>beg middle end rend</route>
   </vehicle>

   <vehicle id="route1_0" depart="2" arrival="187">
      <route>beg beg2left left left2end end rend</route>
   </vehicle>

   <vehicle id="route1_1" depart="8" arrival="196">
      <route>beg beg2left left left2end end rend</route>
   </vehicle>

   <vehicle id="route1_2" depart="13" arrival="202">
      <route>beg beg2left left left2end end rend</route>
   </vehicle>

   <vehicle id="route1_3" depart="19" arrival="207">
      <route>beg beg2left left left2end end rend</route>
   </vehicle>

   <vehicle id="route1_4" depart="24" arrival="213">
      <route>beg beg2left left left2end end rend</route>
   </vehicle>

</routes>
