<?xml version="1.0" encoding="UTF-8"?>

<!-- generated on 2022-02-08 11:26:27 by Eclipse SUMO sumo Version v1_12_0+0353-0cd4bcd
This data file and the accompanying materials
are made available under the terms of the Eclipse Public License v2.0
which accompanies this distribution, and is available at
http://www.eclipse.org/legal/epl-v20.html
This file may also be made available under the following Secondary
Licenses when the conditions for such availability set forth in the Eclipse
Public License 2.0 are satisfied: GNU General Public License, version 2
or later which is available at
https://www.gnu.org/licenses/old-licenses/gpl-2.0-standalone.html
SPDX-License-Identifier: EPL-2.0 OR GPL-2.0-or-later
<configuration xmlns:xsi="http://www.w3.org/2001/XMLSchema-instance" xsi:noNamespaceSchemaLocation="http://sumo.dlr.de/xsd/sumoConfiguration.xsd">

    <input>
        <net-file value="motorway.net.xml"/>
        <route-files value="input_routes.rou.xml"/>
        <additional-files value="input_additional.add.xml"/>
    </input>

    <output>
        <write-license value="true"/>
        <lanechange-output value="lanechanges.xml"/>
    </output>

    <processing>
        <max-depart-delay value="1"/>
        <default.speeddev value="0"/>
    </processing>

    <report>
        <verbose value="true"/>
        <xml-validation value="never"/>
        <xml-validation.routes value="never"/>
        <duration-log.statistics value="true"/>
        <no-step-log value="true"/>
    </report>

</configuration>
-->

<meandata xmlns:xsi="http://www.w3.org/2001/XMLSchema-instance" xsi:noNamespaceSchemaLocation="http://sumo.dlr.de/xsd/meandata_file.xsd">
    <interval begin="0.00" end="1204.00" id="laneData">
        <edge id="beg2">
            <lane id="beg2_0" sampledSeconds="81627.33" traveltime="259.96" overlapTraveltime="260.10" density="22.66" laneDensity="22.66" occupancy="11.33" waitingTime="211.00" timeLoss="53068.91" speed="11.52" speedRelative="0.32" departed="319" arrived="371" entered="0" left="0" laneChangedFrom="342" laneChangedTo="394"/>
            <lane id="beg2_1" sampledSeconds="108785.92" traveltime="372.30" overlapTraveltime="372.54" density="30.20" laneDensity="30.20" occupancy="15.10" waitingTime="622.00" timeLoss="83736.62" speed="8.04" speedRelative="0.22" departed="299" arrived="247" entered="0" left="0" laneChangedFrom="394" laneChangedTo="342"/>
        </edge>
    </interval>
</meandata>
