<?xml version="1.0" encoding="UTF-8"?>

<!-- generated on 2025-09-25T13:45:43.296079+01:00 by Eclipse SUMO sumo v1_24_0+0988-90d076c371e
This data file and the accompanying materials
are made available under the terms of the Eclipse Public License v2.0
which accompanies this distribution, and is available at
http://www.eclipse.org/legal/epl-v20.html
This file may also be made available under the following Secondary
Licenses when the conditions for such availability set forth in the Eclipse
Public License 2.0 are satisfied: GNU General Public License, version 2
or later which is available at
https://www.gnu.org/licenses/old-licenses/gpl-2.0-standalone.html
SPDX-License-Identifier: EPL-2.0 OR GPL-2.0-or-later
<sumoConfiguration xmlns:xsi="http://www.w3.org/2001/XMLSchema-instance" xsi:noNamespaceSchemaLocation="http://sumo.dlr.de/xsd/sumoConfiguration.xsd">

    <input>
        <net-file value="motorway.net.xml"/>
        <route-files value="input_routes.rou.xml"/>
        <additional-files value="input_additional.add.xml"/>
    </input>

    <output>
        <write-license value="true"/>
        <lanechange-output value="lanechanges.xml"/>
    </output>

    <processing>
        <max-depart-delay value="1"/>
        <default.speeddev value="0"/>
    </processing>

    <report>
        <xml-validation value="never"/>
        <duration-log.statistics value="true"/>
        <no-step-log value="true"/>
    </report>

</sumoConfiguration>
-->

<meandata xmlns:xsi="http://www.w3.org/2001/XMLSchema-instance" xsi:noNamespaceSchemaLocation="http://sumo.dlr.de/xsd/meandata_file.xsd">
    <interval begin="0.00" end="1206.00" id="laneData">
        <edge id="beg2">
            <lane id="beg2_0" sampledSeconds="81852.75" traveltime="268.43" overlapTraveltime="268.56" density="22.68" laneDensity="22.68" occupancy="11.34" waitingTime="277.00" timeLoss="54078.33" speed="11.16" speedRelative="0.31" departed="348" arrived="348" entered="0" left="0" laneChangedFrom="407" laneChangedTo="407"/>
            <lane id="beg2_1" sampledSeconds="110202.62" traveltime="366.85" overlapTraveltime="367.08" density="30.54" laneDensity="30.54" occupancy="15.27" waitingTime="750.00" timeLoss="84531.80" speed="8.16" speedRelative="0.23" departed="269" arrived="269" entered="0" left="0" laneChangedFrom="407" laneChangedTo="407"/>
        </edge>
    </interval>
</meandata>
