<?xml version="1.0" encoding="UTF-8"?>

<!-- generated on Wed May 30 17:19:53 2018 by Eclipse SUMO Version ddd1bf7
This data file and the accompanying materials
are made available under the terms of the Eclipse Public License v2.0
which accompanies this distribution, and is available at
http://www.eclipse.org/legal/epl-v20.html
SPDX-License-Identifier: EPL-2.0
<configuration xmlns:xsi="http://www.w3.org/2001/XMLSchema-instance" xsi:noNamespaceSchemaLocation="http://sumo.dlr.de/xsd/sumoConfiguration.xsd">

    <input>
        <net-file value="motorway.net.xml"/>
        <route-files value="input_routes.rou.xml"/>
        <additional-files value="input_additional.add.xml"/>
    </input>

    <output>
        <write-license value="true"/>
        <lanechange-output value="lanechanges.xml"/>
    </output>

    <processing>
        <max-depart-delay value="1"/>
    </processing>

    <report>
        <xml-validation value="never"/>
        <no-step-log value="true"/>
    </report>

</configuration>
-->

<meandata xmlns:xsi="http://www.w3.org/2001/XMLSchema-instance" xsi:noNamespaceSchemaLocation="http://sumo.dlr.de/xsd/meandata_file.xsd">
    <interval begin="0.00" end="1204.00" id="laneData">
        <edge id="beg2">
            <lane id="beg2_0" sampledSeconds="83624.79" traveltime="295.14" overlapTraveltime="295.26" density="23.18" occupancy="11.58" waitingTime="2247.00" speed="10.17" departed="305" arrived="338" entered="0" left="0" laneChangedFrom="317" laneChangedTo="350"/>
            <lane id="beg2_1" sampledSeconds="104843.39" traveltime="342.75" overlapTraveltime="342.98" density="29.06" occupancy="14.53" waitingTime="1193.00" speed="8.75" departed="298" arrived="265" entered="0" left="0" laneChangedFrom="350" laneChangedTo="317"/>
        </edge>
    </interval>
</meandata>
