<?xml version="1.0" encoding="UTF-8"?>

<!-- generated on Mon Mar  9 15:21:10 2020 by Eclipse SUMO Version v1_5_0+0581-a2889fd
This data file and the accompanying materials
are made available under the terms of the Eclipse Public License v2.0
which accompanies this distribution, and is available at
http://www.eclipse.org/legal/epl-v20.html
SPDX-License-Identifier: EPL-2.0
<configuration xmlns:xsi="http://www.w3.org/2001/XMLSchema-instance" xsi:noNamespaceSchemaLocation="http://sumo.dlr.de/xsd/sumoConfiguration.xsd">

    <input>
        <net-file value="motorway.net.xml"/>
        <route-files value="input_routes.rou.xml"/>
        <additional-files value="input_additional.add.xml"/>
    </input>

    <output>
        <write-license value="true"/>
        <lanechange-output value="lanechanges.xml"/>
    </output>

    <processing>
        <max-depart-delay value="1"/>
        <default.speeddev value="0"/>
    </processing>

    <report>
        <verbose value="true"/>
        <xml-validation value="never"/>
        <duration-log.statistics value="true"/>
        <no-step-log value="true"/>
    </report>

</configuration>
-->

<meandata xmlns:xsi="http://www.w3.org/2001/XMLSchema-instance" xsi:noNamespaceSchemaLocation="http://sumo.dlr.de/xsd/meandata_file.xsd">
    <interval begin="0.00" end="1212.00" id="laneData">
        <edge id="beg2">
            <lane id="beg2_0" sampledSeconds="83707.01" traveltime="269.72" overlapTraveltime="269.85" density="23.08" occupancy="11.54" waitingTime="1257.00" speed="11.11" departed="317" arrived="354" entered="0" left="0" laneChangedFrom="331" laneChangedTo="368"/>
            <lane id="beg2_1" sampledSeconds="110425.03" traveltime="379.55" overlapTraveltime="379.79" density="30.45" occupancy="15.22" waitingTime="860.00" speed="7.89" departed="296" arrived="259" entered="0" left="0" laneChangedFrom="368" laneChangedTo="331"/>
        </edge>
    </interval>
</meandata>
