<?xml version="1.0" encoding="UTF-8"?>

<!-- generated on Tue Mar 31 09:34:32 2020 by Eclipse SUMO Version v1_5_0+1023-63f9a82342
This data file and the accompanying materials
are made available under the terms of the Eclipse Public License v2.0
which accompanies this distribution, and is available at
http://www.eclipse.org/legal/epl-v20.html
SPDX-License-Identifier: EPL-2.0
<configuration xmlns:xsi="http://www.w3.org/2001/XMLSchema-instance" xsi:noNamespaceSchemaLocation="http://sumo.dlr.de/xsd/sumoConfiguration.xsd">

    <input>
        <net-file value="motorway.net.xml"/>
        <route-files value="input_routes.rou.xml"/>
        <additional-files value="input_additional.add.xml"/>
    </input>

    <output>
        <write-license value="true"/>
        <lanechange-output value="lanechanges.xml"/>
    </output>

    <processing>
        <max-depart-delay value="1"/>
        <default.speeddev value="0"/>
    </processing>

    <report>
        <verbose value="true"/>
        <xml-validation value="never"/>
        <duration-log.statistics value="true"/>
        <no-step-log value="true"/>
    </report>

</configuration>
-->

<meandata xmlns:xsi="http://www.w3.org/2001/XMLSchema-instance" xsi:noNamespaceSchemaLocation="http://sumo.dlr.de/xsd/meandata_file.xsd">
    <interval begin="0.00" end="1211.00" id="laneData">
        <edge id="beg2">
            <lane id="beg2_0" sampledSeconds="83542.17" traveltime="269.54" overlapTraveltime="269.68" density="23.06" laneDensity="23.06" occupancy="11.52" waitingTime="1256.00" speed="11.11" departed="317" arrived="353" entered="0" left="0" laneChangedFrom="332" laneChangedTo="368"/>
            <lane id="beg2_1" sampledSeconds="110447.55" traveltime="379.10" overlapTraveltime="379.34" density="30.48" laneDensity="30.48" occupancy="15.24" waitingTime="860.00" speed="7.90" departed="296" arrived="260" entered="0" left="0" laneChangedFrom="368" laneChangedTo="332"/>
        </edge>
    </interval>
</meandata>
