<?xml version="1.0" encoding="UTF-8"?>

<!-- generated on 2021-11-23 12:57:43 by Eclipse SUMO sumo Version v1_11_0+0012-279bcfd
This data file and the accompanying materials
are made available under the terms of the Eclipse Public License v2.0
which accompanies this distribution, and is available at
http://www.eclipse.org/legal/epl-v20.html
SPDX-License-Identifier: EPL-2.0
<configuration xmlns:xsi="http://www.w3.org/2001/XMLSchema-instance" xsi:noNamespaceSchemaLocation="http://sumo.dlr.de/xsd/sumoConfiguration.xsd">

    <input>
        <net-file value="net.net.xml"/>
        <route-files value="input_routes.rou.xml"/>
        <additional-files value="input_additional.add.xml"/>
    </input>

    <output>
        <write-license value="true"/>
    </output>

    <time>
        <begin value="0"/>
        <end value="10000"/>
    </time>

    <processing>
        <default.speeddev value="0"/>
        <pedestrian.model value="nonInteracting"/>
    </processing>

    <report>
        <xml-validation value="never"/>
        <xml-validation.routes value="never"/>
        <duration-log.disable value="true"/>
        <no-step-log value="true"/>
    </report>

    <mesoscopic>
        <mesosim value="true"/>
    </mesoscopic>

</configuration>
-->

<meandata xmlns:xsi="http://www.w3.org/2001/XMLSchema-instance" xsi:noNamespaceSchemaLocation="http://sumo.dlr.de/xsd/meandata_file.xsd">
    <interval begin="0.00" end="60.00" id="dump_60">
        <edge id="1/1to2/1" sampledSeconds="1125.00" traveltime="51.65" overlapTraveltime="51.92" density="19.13" laneDensity="19.13" occupancy="9.57" waitingTime="0.00" timeLoss="36.05" speed="18.97" speedRelative="0.97" departed="38" arrived="0" entered="0" left="6" laneChangedFrom="0" laneChangedTo="0"/>
        <edge id="2/1to3/1" sampledSeconds="30.00" traveltime="50.00" overlapTraveltime="50.26" density="0.51" laneDensity="0.51" occupancy="0.26" waitingTime="0.00" timeLoss="0.00" speed="19.60" speedRelative="1.00" departed="0" arrived="0" entered="6" left="0" laneChangedFrom="0" laneChangedTo="0"/>
    </interval>
    <interval begin="60.00" end="120.00" id="dump_60">
        <edge id="1/1to2/1" sampledSeconds="1912.60" traveltime="51.00" overlapTraveltime="51.26" density="32.53" laneDensity="32.53" occupancy="16.26" waitingTime="0.00" timeLoss="37.55" speed="19.22" speedRelative="0.98" departed="38" arrived="0" entered="0" left="38" laneChangedFrom="0" laneChangedTo="0"/>
        <edge id="2/1to3/1" sampledSeconds="1370.00" traveltime="50.00" overlapTraveltime="50.26" density="23.30" laneDensity="23.30" occupancy="11.65" waitingTime="0.00" timeLoss="0.08" speed="19.60" speedRelative="1.00" departed="0" arrived="0" entered="38" left="12" laneChangedFrom="0" laneChangedTo="0"/>
        <edge id="3/1to4/1" sampledSeconds="122.40" traveltime="50.00" overlapTraveltime="50.26" density="2.08" laneDensity="2.08" occupancy="1.04" waitingTime="0.00" timeLoss="0.01" speed="19.60" speedRelative="1.00" departed="0" arrived="0" entered="12" left="0" laneChangedFrom="0" laneChangedTo="0"/>
    </interval>
    <interval begin="120.00" end="180.00" id="dump_60">
        <edge id="1/1to2/1" sampledSeconds="1912.40" traveltime="51.00" overlapTraveltime="51.26" density="32.53" laneDensity="32.53" occupancy="16.26" waitingTime="0.00" timeLoss="37.68" speed="19.21" speedRelative="0.98" departed="37" arrived="0" entered="0" left="37" laneChangedFrom="0" laneChangedTo="0"/>
        <edge id="2/1to3/1" sampledSeconds="1875.00" traveltime="50.00" overlapTraveltime="50.26" density="31.89" laneDensity="31.89" occupancy="15.94" waitingTime="0.00" timeLoss="0.11" speed="19.60" speedRelative="1.00" departed="0" arrived="0" entered="37" left="38" laneChangedFrom="0" laneChangedTo="0"/>
        <edge id="3/1to4/1" sampledSeconds="1590.20" traveltime="50.00" overlapTraveltime="50.26" density="27.05" laneDensity="27.05" occupancy="13.52" waitingTime="0.00" timeLoss="0.10" speed="19.60" speedRelative="1.00" departed="0" arrived="0" entered="38" left="19" laneChangedFrom="0" laneChangedTo="0"/>
        <edge id="4/1to5/1" sampledSeconds="277.40" traveltime="50.00" overlapTraveltime="50.26" density="4.72" laneDensity="4.72" occupancy="2.36" waitingTime="0.00" timeLoss="0.02" speed="19.60" speedRelative="1.00" departed="0" arrived="0" entered="19" left="0" laneChangedFrom="0" laneChangedTo="0"/>
    </interval>
    <interval begin="180.00" end="240.00" id="dump_60">
        <edge id="1/1to2/1" sampledSeconds="1912.60" traveltime="51.00" overlapTraveltime="51.26" density="32.53" laneDensity="32.53" occupancy="16.26" waitingTime="0.00" timeLoss="37.55" speed="19.22" speedRelative="0.98" departed="38" arrived="0" entered="0" left="38" laneChangedFrom="0" laneChangedTo="0"/>
        <edge id="2/1to3/1" sampledSeconds="1875.00" traveltime="50.00" overlapTraveltime="50.26" density="31.89" laneDensity="31.89" occupancy="15.94" waitingTime="0.00" timeLoss="0.11" speed="19.60" speedRelative="1.00" departed="0" arrived="0" entered="38" left="37" laneChangedFrom="0" laneChangedTo="0"/>
        <edge id="3/1to4/1" sampledSeconds="1874.80" traveltime="50.00" overlapTraveltime="50.26" density="31.89" laneDensity="31.89" occupancy="15.94" waitingTime="0.00" timeLoss="0.11" speed="19.60" speedRelative="1.00" departed="0" arrived="0" entered="37" left="37" laneChangedFrom="0" laneChangedTo="0"/>
        <edge id="4/1to5/1" sampledSeconds="1747.60" traveltime="50.00" overlapTraveltime="50.26" density="29.72" laneDensity="29.72" occupancy="14.86" waitingTime="0.00" timeLoss="0.11" speed="19.60" speedRelative="1.00" departed="0" arrived="0" entered="37" left="25" laneChangedFrom="0" laneChangedTo="0"/>
        <edge id="5/1to6/1" sampledSeconds="495.00" traveltime="50.00" overlapTraveltime="50.26" density="8.42" laneDensity="8.42" occupancy="4.21" waitingTime="0.00" timeLoss="0.03" speed="19.60" speedRelative="1.00" departed="0" arrived="0" entered="25" left="0" laneChangedFrom="0" laneChangedTo="0"/>
    </interval>
    <interval begin="240.00" end="300.00" id="dump_60">
        <edge id="1/1to2/1" sampledSeconds="1912.40" traveltime="51.00" overlapTraveltime="51.26" density="32.53" laneDensity="32.53" occupancy="16.26" waitingTime="0.00" timeLoss="37.68" speed="19.21" speedRelative="0.98" departed="37" arrived="0" entered="0" left="37" laneChangedFrom="0" laneChangedTo="0"/>
        <edge id="2/1to3/1" sampledSeconds="1875.00" traveltime="50.00" overlapTraveltime="50.26" density="31.89" laneDensity="31.89" occupancy="15.94" waitingTime="0.00" timeLoss="0.11" speed="19.60" speedRelative="1.00" departed="0" arrived="0" entered="37" left="38" laneChangedFrom="0" laneChangedTo="0"/>
        <edge id="3/1to4/1" sampledSeconds="1875.20" traveltime="50.00" overlapTraveltime="50.26" density="31.89" laneDensity="31.89" occupancy="15.95" waitingTime="0.00" timeLoss="0.11" speed="19.60" speedRelative="1.00" departed="0" arrived="0" entered="38" left="38" laneChangedFrom="0" laneChangedTo="0"/>
        <edge id="4/1to5/1" sampledSeconds="1875.00" traveltime="50.00" overlapTraveltime="50.26" density="31.89" laneDensity="31.89" occupancy="15.94" waitingTime="0.00" timeLoss="0.11" speed="19.60" speedRelative="1.00" departed="0" arrived="0" entered="38" left="37" laneChangedFrom="0" laneChangedTo="0"/>
        <edge id="5/1to6/1" sampledSeconds="1842.40" traveltime="50.00" overlapTraveltime="50.26" density="31.34" laneDensity="31.34" occupancy="15.67" waitingTime="0.00" timeLoss="0.11" speed="19.60" speedRelative="1.00" departed="0" arrived="0" entered="37" left="31" laneChangedFrom="0" laneChangedTo="0"/>
        <edge id="6/1to7/1" sampledSeconds="775.00" traveltime="50.00" overlapTraveltime="50.26" density="13.18" laneDensity="13.18" occupancy="6.59" waitingTime="0.00" timeLoss="0.05" speed="19.60" speedRelative="1.00" departed="0" arrived="0" entered="31" left="0" laneChangedFrom="0" laneChangedTo="0"/>
    </interval>
    <interval begin="300.00" end="360.00" id="dump_60">
        <edge id="1/1to2/1" sampledSeconds="1912.60" traveltime="51.00" overlapTraveltime="51.26" density="32.53" laneDensity="32.53" occupancy="16.26" waitingTime="0.00" timeLoss="37.55" speed="19.22" speedRelative="0.98" departed="38" arrived="0" entered="0" left="38" laneChangedFrom="0" laneChangedTo="0"/>
        <edge id="2/1to3/1" sampledSeconds="1875.00" traveltime="50.00" overlapTraveltime="50.26" density="31.89" laneDensity="31.89" occupancy="15.94" waitingTime="0.00" timeLoss="0.11" speed="19.60" speedRelative="1.00" departed="0" arrived="0" entered="38" left="37" laneChangedFrom="0" laneChangedTo="0"/>
        <edge id="3/1to4/1" sampledSeconds="1874.80" traveltime="50.00" overlapTraveltime="50.26" density="31.89" laneDensity="31.89" occupancy="15.94" waitingTime="0.00" timeLoss="0.11" speed="19.60" speedRelative="1.00" departed="0" arrived="0" entered="37" left="37" laneChangedFrom="0" laneChangedTo="0"/>
        <edge id="4/1to5/1" sampledSeconds="1875.00" traveltime="50.00" overlapTraveltime="50.26" density="31.89" laneDensity="31.89" occupancy="15.94" waitingTime="0.00" timeLoss="0.11" speed="19.60" speedRelative="1.00" departed="0" arrived="0" entered="37" left="38" laneChangedFrom="0" laneChangedTo="0"/>
        <edge id="5/1to6/1" sampledSeconds="1875.20" traveltime="50.00" overlapTraveltime="50.26" density="31.89" laneDensity="31.89" occupancy="15.95" waitingTime="0.00" timeLoss="0.11" speed="19.60" speedRelative="1.00" departed="0" arrived="0" entered="38" left="38" laneChangedFrom="0" laneChangedTo="0"/>
        <edge id="6/1to7/1" sampledSeconds="1875.00" traveltime="50.00" overlapTraveltime="50.26" density="31.89" laneDensity="31.89" occupancy="15.94" waitingTime="0.00" timeLoss="0.11" speed="19.60" speedRelative="1.00" departed="0" arrived="0" entered="38" left="37" laneChangedFrom="0" laneChangedTo="0"/>
        <edge id="7/1to8/1" sampledSeconds="1087.40" traveltime="50.00" overlapTraveltime="50.26" density="18.49" laneDensity="18.49" occupancy="9.25" waitingTime="0.00" timeLoss="0.07" speed="19.60" speedRelative="1.00" departed="0" arrived="0" entered="37" left="6" laneChangedFrom="0" laneChangedTo="0"/>
        <edge id="8/1to9/1" sampledSeconds="30.00" traveltime="50.00" overlapTraveltime="50.26" density="0.51" laneDensity="0.51" occupancy="0.26" waitingTime="0.00" timeLoss="0.00" speed="19.60" speedRelative="1.00" departed="0" arrived="0" entered="6" left="0" laneChangedFrom="0" laneChangedTo="0"/>
    </interval>
    <interval begin="360.00" end="420.00" id="dump_60">
        <edge id="1/1to2/1" sampledSeconds="1912.40" traveltime="51.00" overlapTraveltime="51.26" density="32.53" laneDensity="32.53" occupancy="16.26" waitingTime="0.00" timeLoss="37.68" speed="19.21" speedRelative="0.98" departed="37" arrived="0" entered="0" left="37" laneChangedFrom="0" laneChangedTo="0"/>
        <edge id="2/1to3/1" sampledSeconds="1875.00" traveltime="50.00" overlapTraveltime="50.26" density="31.89" laneDensity="31.89" occupancy="15.94" waitingTime="0.00" timeLoss="0.11" speed="19.60" speedRelative="1.00" departed="0" arrived="0" entered="37" left="38" laneChangedFrom="0" laneChangedTo="0"/>
        <edge id="3/1to4/1" sampledSeconds="1875.20" traveltime="50.00" overlapTraveltime="50.26" density="31.89" laneDensity="31.89" occupancy="15.95" waitingTime="0.00" timeLoss="0.11" speed="19.60" speedRelative="1.00" departed="0" arrived="0" entered="38" left="38" laneChangedFrom="0" laneChangedTo="0"/>
        <edge id="4/1to5/1" sampledSeconds="1875.00" traveltime="50.00" overlapTraveltime="50.26" density="31.89" laneDensity="31.89" occupancy="15.94" waitingTime="0.00" timeLoss="0.11" speed="19.60" speedRelative="1.00" departed="0" arrived="0" entered="38" left="37" laneChangedFrom="0" laneChangedTo="0"/>
        <edge id="5/1to6/1" sampledSeconds="1874.80" traveltime="50.00" overlapTraveltime="50.26" density="31.89" laneDensity="31.89" occupancy="15.94" waitingTime="0.00" timeLoss="0.11" speed="19.60" speedRelative="1.00" departed="0" arrived="0" entered="37" left="37" laneChangedFrom="0" laneChangedTo="0"/>
        <edge id="6/1to7/1" sampledSeconds="1875.00" traveltime="50.00" overlapTraveltime="50.26" density="31.89" laneDensity="31.89" occupancy="15.94" waitingTime="0.00" timeLoss="0.11" speed="19.60" speedRelative="1.00" departed="0" arrived="0" entered="37" left="38" laneChangedFrom="0" laneChangedTo="0"/>
        <edge id="7/1to8/1" sampledSeconds="1875.20" traveltime="50.00" overlapTraveltime="50.26" density="31.89" laneDensity="31.89" occupancy="15.95" waitingTime="0.00" timeLoss="0.11" speed="19.60" speedRelative="1.00" departed="0" arrived="0" entered="38" left="38" laneChangedFrom="0" laneChangedTo="0"/>
        <edge id="8/1to9/1" sampledSeconds="1370.00" traveltime="50.00" overlapTraveltime="50.26" density="23.30" laneDensity="23.30" occupancy="11.65" waitingTime="0.00" timeLoss="0.08" speed="19.60" speedRelative="1.00" departed="0" arrived="0" entered="38" left="12" laneChangedFrom="0" laneChangedTo="0"/>
        <edge id="9/1to10/1" sampledSeconds="122.40" traveltime="50.00" overlapTraveltime="50.26" density="2.08" laneDensity="2.08" occupancy="1.04" waitingTime="0.00" timeLoss="0.01" speed="19.60" speedRelative="1.00" departed="0" arrived="0" entered="12" left="0" laneChangedFrom="0" laneChangedTo="0"/>
    </interval>
    <interval begin="420.00" end="480.00" id="dump_60">
        <edge id="1/1to2/1" sampledSeconds="1912.60" traveltime="51.00" overlapTraveltime="51.26" density="32.53" laneDensity="32.53" occupancy="16.26" waitingTime="0.00" timeLoss="37.55" speed="19.22" speedRelative="0.98" departed="38" arrived="0" entered="0" left="38" laneChangedFrom="0" laneChangedTo="0"/>
        <edge id="10/1to1/1" sampledSeconds="277.40" traveltime="50.00" overlapTraveltime="50.26" density="4.72" laneDensity="4.72" occupancy="2.36" waitingTime="0.00" timeLoss="0.02" speed="19.60" speedRelative="1.00" departed="0" arrived="0" entered="19" left="0" laneChangedFrom="0" laneChangedTo="0"/>
        <edge id="2/1to3/1" sampledSeconds="1875.00" traveltime="50.00" overlapTraveltime="50.26" density="31.89" laneDensity="31.89" occupancy="15.94" waitingTime="0.00" timeLoss="0.11" speed="19.60" speedRelative="1.00" departed="0" arrived="0" entered="38" left="37" laneChangedFrom="0" laneChangedTo="0"/>
        <edge id="3/1to4/1" sampledSeconds="1874.80" traveltime="50.00" overlapTraveltime="50.26" density="31.89" laneDensity="31.89" occupancy="15.94" waitingTime="0.00" timeLoss="0.11" speed="19.60" speedRelative="1.00" departed="0" arrived="0" entered="37" left="37" laneChangedFrom="0" laneChangedTo="0"/>
        <edge id="4/1to5/1" sampledSeconds="1875.00" traveltime="50.00" overlapTraveltime="50.26" density="31.89" laneDensity="31.89" occupancy="15.94" waitingTime="0.00" timeLoss="0.11" speed="19.60" speedRelative="1.00" departed="0" arrived="0" entered="37" left="38" laneChangedFrom="0" laneChangedTo="0"/>
        <edge id="5/1to6/1" sampledSeconds="1875.20" traveltime="50.00" overlapTraveltime="50.26" density="31.89" laneDensity="31.89" occupancy="15.95" waitingTime="0.00" timeLoss="0.11" speed="19.60" speedRelative="1.00" departed="0" arrived="0" entered="38" left="38" laneChangedFrom="0" laneChangedTo="0"/>
        <edge id="6/1to7/1" sampledSeconds="1875.00" traveltime="50.00" overlapTraveltime="50.26" density="31.89" laneDensity="31.89" occupancy="15.94" waitingTime="0.00" timeLoss="0.11" speed="19.60" speedRelative="1.00" departed="0" arrived="0" entered="38" left="37" laneChangedFrom="0" laneChangedTo="0"/>
        <edge id="7/1to8/1" sampledSeconds="1874.80" traveltime="50.00" overlapTraveltime="50.26" density="31.89" laneDensity="31.89" occupancy="15.94" waitingTime="0.00" timeLoss="0.11" speed="19.60" speedRelative="1.00" departed="0" arrived="0" entered="37" left="37" laneChangedFrom="0" laneChangedTo="0"/>
        <edge id="8/1to9/1" sampledSeconds="1875.00" traveltime="50.00" overlapTraveltime="50.26" density="31.89" laneDensity="31.89" occupancy="15.94" waitingTime="0.00" timeLoss="0.11" speed="19.60" speedRelative="1.00" departed="0" arrived="0" entered="37" left="38" laneChangedFrom="0" laneChangedTo="0"/>
        <edge id="9/1to10/1" sampledSeconds="1590.20" traveltime="50.00" overlapTraveltime="50.26" density="27.05" laneDensity="27.05" occupancy="13.52" waitingTime="0.00" timeLoss="0.10" speed="19.60" speedRelative="1.00" departed="0" arrived="0" entered="38" left="19" laneChangedFrom="0" laneChangedTo="0"/>
    </interval>
    <interval begin="480.00" end="540.00" id="dump_60">
        <edge id="1/1to2/1" sampledSeconds="1945.40" traveltime="51.82" overlapTraveltime="52.08" density="33.09" laneDensity="33.09" occupancy="16.54" waitingTime="0.00" timeLoss="68.46" speed="18.91" speedRelative="0.96" departed="13" arrived="0" entered="25" left="37" laneChangedFrom="0" laneChangedTo="0"/>
        <edge id="10/1to1/1" sampledSeconds="1747.60" traveltime="50.00" overlapTraveltime="50.26" density="29.72" laneDensity="29.72" occupancy="14.86" waitingTime="0.00" timeLoss="0.11" speed="19.60" speedRelative="1.00" departed="0" arrived="0" entered="37" left="25" laneChangedFrom="0" laneChangedTo="0"/>
        <edge id="2/1to3/1" sampledSeconds="1875.00" traveltime="50.00" overlapTraveltime="50.26" density="31.89" laneDensity="31.89" occupancy="15.94" waitingTime="0.00" timeLoss="0.11" speed="19.60" speedRelative="1.00" departed="0" arrived="0" entered="37" left="38" laneChangedFrom="0" laneChangedTo="0"/>
        <edge id="3/1to4/1" sampledSeconds="1875.20" traveltime="50.00" overlapTraveltime="50.26" density="31.89" laneDensity="31.89" occupancy="15.95" waitingTime="0.00" timeLoss="0.11" speed="19.60" speedRelative="1.00" departed="0" arrived="0" entered="38" left="38" laneChangedFrom="0" laneChangedTo="0"/>
        <edge id="4/1to5/1" sampledSeconds="1875.00" traveltime="50.00" overlapTraveltime="50.26" density="31.89" laneDensity="31.89" occupancy="15.94" waitingTime="0.00" timeLoss="0.11" speed="19.60" speedRelative="1.00" departed="0" arrived="0" entered="38" left="37" laneChangedFrom="0" laneChangedTo="0"/>
        <edge id="5/1to6/1" sampledSeconds="1874.80" traveltime="50.00" overlapTraveltime="50.26" density="31.89" laneDensity="31.89" occupancy="15.94" waitingTime="0.00" timeLoss="0.11" speed="19.60" speedRelative="1.00" departed="0" arrived="0" entered="37" left="37" laneChangedFrom="0" laneChangedTo="0"/>
        <edge id="6/1to7/1" sampledSeconds="1875.00" traveltime="50.00" overlapTraveltime="50.26" density="31.89" laneDensity="31.89" occupancy="15.94" waitingTime="0.00" timeLoss="0.11" speed="19.60" speedRelative="1.00" departed="0" arrived="0" entered="37" left="38" laneChangedFrom="0" laneChangedTo="0"/>
        <edge id="7/1to8/1" sampledSeconds="1875.20" traveltime="50.00" overlapTraveltime="50.26" density="31.89" laneDensity="31.89" occupancy="15.95" waitingTime="0.00" timeLoss="0.11" speed="19.60" speedRelative="1.00" departed="0" arrived="0" entered="38" left="38" laneChangedFrom="0" laneChangedTo="0"/>
        <edge id="8/1to9/1" sampledSeconds="1875.00" traveltime="50.00" overlapTraveltime="50.26" density="31.89" laneDensity="31.89" occupancy="15.94" waitingTime="0.00" timeLoss="0.11" speed="19.60" speedRelative="1.00" departed="0" arrived="0" entered="38" left="37" laneChangedFrom="0" laneChangedTo="0"/>
        <edge id="9/1to10/1" sampledSeconds="1874.80" traveltime="50.00" overlapTraveltime="50.26" density="31.89" laneDensity="31.89" occupancy="15.94" waitingTime="0.00" timeLoss="0.11" speed="19.60" speedRelative="1.00" departed="0" arrived="0" entered="37" left="37" laneChangedFrom="0" laneChangedTo="0"/>
    </interval>
    <interval begin="540.00" end="600.00" id="dump_60">
        <edge id="1/1to2/1" sampledSeconds="1965.00" traveltime="52.40" overlapTraveltime="52.67" density="33.42" laneDensity="33.42" occupancy="16.71" waitingTime="0.00" timeLoss="90.08" speed="18.70" speedRelative="0.95" departed="0" arrived="0" entered="37" left="38" laneChangedFrom="0" laneChangedTo="0"/>
        <edge id="10/1to1/1" sampledSeconds="1875.00" traveltime="50.00" overlapTraveltime="50.26" density="31.89" laneDensity="31.89" occupancy="15.94" waitingTime="0.00" timeLoss="0.11" speed="19.60" speedRelative="1.00" departed="0" arrived="0" entered="38" left="37" laneChangedFrom="0" laneChangedTo="0"/>
        <edge id="2/1to3/1" sampledSeconds="1875.00" traveltime="50.00" overlapTraveltime="50.26" density="31.89" laneDensity="31.89" occupancy="15.94" waitingTime="0.00" timeLoss="0.11" speed="19.60" speedRelative="1.00" departed="0" arrived="0" entered="38" left="37" laneChangedFrom="0" laneChangedTo="0"/>
        <edge id="3/1to4/1" sampledSeconds="1874.80" traveltime="50.00" overlapTraveltime="50.26" density="31.89" laneDensity="31.89" occupancy="15.94" waitingTime="0.00" timeLoss="0.11" speed="19.60" speedRelative="1.00" departed="0" arrived="0" entered="37" left="37" laneChangedFrom="0" laneChangedTo="0"/>
        <edge id="4/1to5/1" sampledSeconds="1875.00" traveltime="50.00" overlapTraveltime="50.26" density="31.89" laneDensity="31.89" occupancy="15.94" waitingTime="0.00" timeLoss="0.11" speed="19.60" speedRelative="1.00" departed="0" arrived="0" entered="37" left="38" laneChangedFrom="0" laneChangedTo="0"/>
        <edge id="5/1to6/1" sampledSeconds="1875.20" traveltime="50.00" overlapTraveltime="50.26" density="31.89" laneDensity="31.89" occupancy="15.95" waitingTime="0.00" timeLoss="0.11" speed="19.60" speedRelative="1.00" departed="0" arrived="0" entered="38" left="38" laneChangedFrom="0" laneChangedTo="0"/>
        <edge id="6/1to7/1" sampledSeconds="1875.00" traveltime="50.00" overlapTraveltime="50.26" density="31.89" laneDensity="31.89" occupancy="15.94" waitingTime="0.00" timeLoss="0.11" speed="19.60" speedRelative="1.00" departed="0" arrived="0" entered="38" left="37" laneChangedFrom="0" laneChangedTo="0"/>
        <edge id="7/1to8/1" sampledSeconds="1874.80" traveltime="50.00" overlapTraveltime="50.26" density="31.89" laneDensity="31.89" occupancy="15.94" waitingTime="0.00" timeLoss="0.11" speed="19.60" speedRelative="1.00" departed="0" arrived="0" entered="37" left="37" laneChangedFrom="0" laneChangedTo="0"/>
        <edge id="8/1to9/1" sampledSeconds="1875.00" traveltime="50.00" overlapTraveltime="50.26" density="31.89" laneDensity="31.89" occupancy="15.94" waitingTime="0.00" timeLoss="0.11" speed="19.60" speedRelative="1.00" departed="0" arrived="0" entered="37" left="38" laneChangedFrom="0" laneChangedTo="0"/>
        <edge id="9/1to10/1" sampledSeconds="1875.20" traveltime="50.00" overlapTraveltime="50.26" density="31.89" laneDensity="31.89" occupancy="15.95" waitingTime="0.00" timeLoss="0.11" speed="19.60" speedRelative="1.00" departed="0" arrived="0" entered="38" left="38" laneChangedFrom="0" laneChangedTo="0"/>
    </interval>
    <interval begin="600.00" end="660.00" id="dump_60">
        <edge id="1/1to2/1" sampledSeconds="1965.00" traveltime="52.40" overlapTraveltime="52.67" density="33.42" laneDensity="33.42" occupancy="16.71" waitingTime="0.00" timeLoss="90.15" speed="18.70" speedRelative="0.95" departed="0" arrived="0" entered="38" left="37" laneChangedFrom="0" laneChangedTo="0"/>
        <edge id="10/1to1/1" sampledSeconds="1875.00" traveltime="50.00" overlapTraveltime="50.26" density="31.89" laneDensity="31.89" occupancy="15.94" waitingTime="0.00" timeLoss="0.11" speed="19.60" speedRelative="1.00" departed="0" arrived="0" entered="37" left="38" laneChangedFrom="0" laneChangedTo="0"/>
        <edge id="2/1to3/1" sampledSeconds="1875.00" traveltime="50.00" overlapTraveltime="50.26" density="31.89" laneDensity="31.89" occupancy="15.94" waitingTime="0.00" timeLoss="0.11" speed="19.60" speedRelative="1.00" departed="0" arrived="0" entered="37" left="38" laneChangedFrom="0" laneChangedTo="0"/>
        <edge id="3/1to4/1" sampledSeconds="1875.20" traveltime="50.00" overlapTraveltime="50.26" density="31.89" laneDensity="31.89" occupancy="15.95" waitingTime="0.00" timeLoss="0.11" speed="19.60" speedRelative="1.00" departed="0" arrived="0" entered="38" left="38" laneChangedFrom="0" laneChangedTo="0"/>
        <edge id="4/1to5/1" sampledSeconds="1875.00" traveltime="50.00" overlapTraveltime="50.26" density="31.89" laneDensity="31.89" occupancy="15.94" waitingTime="0.00" timeLoss="0.11" speed="19.60" speedRelative="1.00" departed="0" arrived="0" entered="38" left="37" laneChangedFrom="0" laneChangedTo="0"/>
        <edge id="5/1to6/1" sampledSeconds="1874.80" traveltime="50.00" overlapTraveltime="50.26" density="31.89" laneDensity="31.89" occupancy="15.94" waitingTime="0.00" timeLoss="0.11" speed="19.60" speedRelative="1.00" departed="0" arrived="0" entered="37" left="37" laneChangedFrom="0" laneChangedTo="0"/>
        <edge id="6/1to7/1" sampledSeconds="1875.00" traveltime="50.00" overlapTraveltime="50.26" density="31.89" laneDensity="31.89" occupancy="15.94" waitingTime="0.00" timeLoss="0.11" speed="19.60" speedRelative="1.00" departed="0" arrived="0" entered="37" left="38" laneChangedFrom="0" laneChangedTo="0"/>
        <edge id="7/1to8/1" sampledSeconds="1875.20" traveltime="50.00" overlapTraveltime="50.26" density="31.89" laneDensity="31.89" occupancy="15.95" waitingTime="0.00" timeLoss="0.11" speed="19.60" speedRelative="1.00" departed="0" arrived="0" entered="38" left="38" laneChangedFrom="0" laneChangedTo="0"/>
        <edge id="8/1to9/1" sampledSeconds="1875.00" traveltime="50.00" overlapTraveltime="50.26" density="31.89" laneDensity="31.89" occupancy="15.94" waitingTime="0.00" timeLoss="0.11" speed="19.60" speedRelative="1.00" departed="0" arrived="0" entered="38" left="37" laneChangedFrom="0" laneChangedTo="0"/>
        <edge id="9/1to10/1" sampledSeconds="1874.80" traveltime="50.00" overlapTraveltime="50.26" density="31.89" laneDensity="31.89" occupancy="15.94" waitingTime="0.00" timeLoss="0.11" speed="19.60" speedRelative="1.00" departed="0" arrived="0" entered="37" left="37" laneChangedFrom="0" laneChangedTo="0"/>
    </interval>
    <interval begin="660.00" end="720.00" id="dump_60">
        <edge id="1/1to2/1" sampledSeconds="1965.00" traveltime="52.40" overlapTraveltime="52.67" density="33.42" laneDensity="33.42" occupancy="16.71" waitingTime="0.00" timeLoss="90.08" speed="18.70" speedRelative="0.95" departed="0" arrived="0" entered="37" left="38" laneChangedFrom="0" laneChangedTo="0"/>
        <edge id="10/1to1/1" sampledSeconds="1875.00" traveltime="50.00" overlapTraveltime="50.26" density="31.89" laneDensity="31.89" occupancy="15.94" waitingTime="0.00" timeLoss="0.11" speed="19.60" speedRelative="1.00" departed="0" arrived="0" entered="38" left="37" laneChangedFrom="0" laneChangedTo="0"/>
        <edge id="2/1to3/1" sampledSeconds="1875.00" traveltime="50.00" overlapTraveltime="50.26" density="31.89" laneDensity="31.89" occupancy="15.94" waitingTime="0.00" timeLoss="0.11" speed="19.60" speedRelative="1.00" departed="0" arrived="0" entered="38" left="37" laneChangedFrom="0" laneChangedTo="0"/>
        <edge id="3/1to4/1" sampledSeconds="1874.80" traveltime="50.00" overlapTraveltime="50.26" density="31.89" laneDensity="31.89" occupancy="15.94" waitingTime="0.00" timeLoss="0.11" speed="19.60" speedRelative="1.00" departed="0" arrived="0" entered="37" left="37" laneChangedFrom="0" laneChangedTo="0"/>
        <edge id="4/1to5/1" sampledSeconds="1875.00" traveltime="50.00" overlapTraveltime="50.26" density="31.89" laneDensity="31.89" occupancy="15.94" waitingTime="0.00" timeLoss="0.11" speed="19.60" speedRelative="1.00" departed="0" arrived="0" entered="37" left="38" laneChangedFrom="0" laneChangedTo="0"/>
        <edge id="5/1to6/1" sampledSeconds="1875.20" traveltime="50.00" overlapTraveltime="50.26" density="31.89" laneDensity="31.89" occupancy="15.95" waitingTime="0.00" timeLoss="0.11" speed="19.60" speedRelative="1.00" departed="0" arrived="0" entered="38" left="38" laneChangedFrom="0" laneChangedTo="0"/>
        <edge id="6/1to7/1" sampledSeconds="1875.00" traveltime="50.00" overlapTraveltime="50.26" density="31.89" laneDensity="31.89" occupancy="15.94" waitingTime="0.00" timeLoss="0.11" speed="19.60" speedRelative="1.00" departed="0" arrived="0" entered="38" left="37" laneChangedFrom="0" laneChangedTo="0"/>
        <edge id="7/1to8/1" sampledSeconds="1874.80" traveltime="50.00" overlapTraveltime="50.26" density="31.89" laneDensity="31.89" occupancy="15.94" waitingTime="0.00" timeLoss="0.11" speed="19.60" speedRelative="1.00" departed="0" arrived="0" entered="37" left="37" laneChangedFrom="0" laneChangedTo="0"/>
        <edge id="8/1to9/1" sampledSeconds="1875.00" traveltime="50.00" overlapTraveltime="50.26" density="31.89" laneDensity="31.89" occupancy="15.94" waitingTime="0.00" timeLoss="0.11" speed="19.60" speedRelative="1.00" departed="0" arrived="0" entered="37" left="38" laneChangedFrom="0" laneChangedTo="0"/>
        <edge id="9/1to10/1" sampledSeconds="1875.20" traveltime="50.00" overlapTraveltime="50.26" density="31.89" laneDensity="31.89" occupancy="15.95" waitingTime="0.00" timeLoss="0.11" speed="19.60" speedRelative="1.00" departed="0" arrived="0" entered="38" left="38" laneChangedFrom="0" laneChangedTo="0"/>
    </interval>
    <interval begin="720.00" end="780.00" id="dump_60">
        <edge id="1/1to2/1" sampledSeconds="1965.00" traveltime="52.40" overlapTraveltime="52.67" density="33.42" laneDensity="33.42" occupancy="16.71" waitingTime="0.00" timeLoss="90.15" speed="18.70" speedRelative="0.95" departed="0" arrived="0" entered="38" left="37" laneChangedFrom="0" laneChangedTo="0"/>
        <edge id="10/1to1/1" sampledSeconds="1875.00" traveltime="50.00" overlapTraveltime="50.26" density="31.89" laneDensity="31.89" occupancy="15.94" waitingTime="0.00" timeLoss="0.11" speed="19.60" speedRelative="1.00" departed="0" arrived="0" entered="37" left="38" laneChangedFrom="0" laneChangedTo="0"/>