<?xml version="1.0" encoding="UTF-8"?>

<!-- generated on Sat Dec  2 00:05:53 2017 by SUMO Version UNKNOWN
<?xml version="1.0" encoding="UTF-8"?>

<configuration xmlns:xsi="http://www.w3.org/2001/XMLSchema-instance" xsi:noNamespaceSchemaLocation="http://sumo.dlr.de/xsd/sumoConfiguration.xsd">

    <input>
        <net-file value="net.net.xml"/>
        <route-files value="input_routes.rou.xml"/>
    </input>

    <output>
        <fcd-output value="fcd.xml"/>
        <tripinfo-output value="tripinfos.xml"/>
        <lanechange-output value="lanechanges.xml"/>
    </output>

    <time>
        <step-length value="0.2"/>
    </time>

    <processing>
        <lateral-resolution value="0.2"/>
    </processing>

    <report>
        <xml-validation value="never"/>
        <no-step-log value="true"/>
    </report>

    <gui_only>
        <tracker-interval value="0.2"/>
    </gui_only>

</configuration>
-->

<fcd-export xmlns:xsi="http://www.w3.org/2001/XMLSchema-instance" xsi:noNamespaceSchemaLocation="http://sumo.dlr.de/xsd/fcd_file.xsd">
    <timestep time="0.00">
        <vehicle id="B" x="0.00" y="-1.65" angle="90.00" type="tB" speed="13.89" pos="0.00" lane="beg_1" slope="0.00"/>
        <vehicle id="ego" x="0.10" y="-4.95" angle="90.00" type="tEgo" speed="13.89" pos="0.10" lane="beg_0" slope="0.00"/>
    </timestep>
    <timestep time="0.20">
        <vehicle id="B" x="2.76" y="-1.65" angle="90.00" type="tB" speed="13.89" pos="2.78" lane="beg_1" slope="0.00"/>
        <vehicle id="ego" x="2.86" y="-4.91" angle="89.71" type="tEgo" speed="13.89" pos="2.88" lane="beg_0" slope="0.00"/>
    </timestep>
    <timestep time="0.40">
        <vehicle id="B" x="5.51" y="-1.61" angle="89.71" type="tB" speed="13.89" pos="5.56" lane="beg_1" slope="0.00"/>
        <vehicle id="ego" x="5.61" y="-4.83" angle="89.41" type="tEgo" speed="13.89" pos="5.66" lane="beg_0" slope="0.00"/>
    </timestep>
    <timestep time="0.60">
        <vehicle id="B" x="8.27" y="-1.57" angle="89.71" type="tB" speed="13.89" pos="8.33" lane="beg_1" slope="0.00"/>
        <vehicle id="ego" x="8.37" y="-4.71" angle="89.12" type="tEgo" speed="13.89" pos="8.43" lane="beg_0" slope="0.00"/>
    </timestep>
    <timestep time="0.80">
        <vehicle id="B" x="11.03" y="-1.49" angle="89.41" type="tB" speed="13.89" pos="11.11" lane="beg_1" slope="0.00"/>
        <vehicle id="ego" x="11.13" y="-4.55" angle="88.82" type="tEgo" speed="13.89" pos="11.21" lane="beg_0" slope="0.00"/>
    </timestep>
    <timestep time="1.00">
        <vehicle id="B" x="13.79" y="-1.37" angle="89.12" type="tB" speed="13.89" pos="13.89" lane="beg_1" slope="0.00"/>
        <vehicle id="ego" x="13.89" y="-4.35" angle="88.53" type="tEgo" speed="13.89" pos="13.99" lane="beg_0" slope="0.00"/>
    </timestep>
    <timestep time="1.20">
        <vehicle id="B" x="16.54" y="-1.37" angle="90.00" type="tB" speed="13.89" pos="16.67" lane="beg_1" slope="0.00"/>
        <vehicle id="ego" x="16.64" y="-4.15" angle="88.53" type="tEgo" speed="13.89" pos="16.77" lane="beg_0" slope="0.00"/>
    </timestep>
    <timestep time="1.40">
        <vehicle id="B" x="19.30" y="-1.33" angle="89.71" type="tB" speed="13.89" pos="19.45" lane="beg_1" slope="0.00"/>
        <vehicle id="ego" x="19.40" y="-3.99" angle="88.82" type="tEgo" speed="13.89" pos="19.55" lane="beg_0" slope="0.00"/>
    </timestep>
    <timestep time="1.60">
        <vehicle id="B" x="22.06" y="-1.25" angle="89.41" type="tB" speed="13.89" pos="22.22" lane="beg_1" slope="0.00"/>
        <vehicle id="ego" x="22.16" y="-3.87" angle="89.12" type="tEgo" speed="13.89" pos="22.32" lane="beg_0" slope="0.00"/>
    </timestep>
    <timestep time="1.80">
        <vehicle id="B" x="24.81" y="-1.25" angle="90.00" type="tB" speed="13.89" pos="25.00" lane="beg_1" slope="0.00"/>
        <vehicle id="ego" x="24.91" y="-3.71" angle="88.82" type="tEgo" speed="13.89" pos="25.10" lane="beg_0" slope="0.00"/>
    </timestep>
    <timestep time="2.00">
        <vehicle id="B" x="27.57" y="-1.21" angle="89.71" type="tB" speed="13.89" pos="27.78" lane="beg_1" slope="0.00"/>
        <vehicle id="ego" x="27.67" y="-3.59" angle="89.12" type="tEgo" speed="13.89" pos="27.88" lane="beg_0" slope="0.00"/>
    </timestep>
    <timestep time="2.20">
        <vehicle id="B" x="30.33" y="-1.21" angle="90.00" type="tB" speed="13.89" pos="30.56" lane="beg_1" slope="0.00"/>
        <vehicle id="ego" x="30.43" y="-3.51" angle="89.41" type="tEgo" speed="13.89" pos="30.66" lane="beg_0" slope="0.00"/>
    </timestep>
    <timestep time="2.40">
        <vehicle id="B" x="33.09" y="-1.20" angle="89.93" type="tB" speed="13.89" pos="33.34" lane="beg_1" slope="0.00"/>
        <vehicle id="ego" x="33.19" y="-3.47" angle="89.71" type="tEgo" speed="13.89" pos="33.44" lane="beg_0" slope="0.00"/>
    </timestep>
    <timestep time="2.60">
        <vehicle id="B" x="35.84" y="-1.20" angle="90.00" type="tB" speed="13.89" pos="36.11" lane="beg_1" slope="0.00"/>
        <vehicle id="ego" x="35.94" y="-3.47" angle="90.00" type="tEgo" speed="13.89" pos="36.21" lane="beg_0" slope="0.00"/>
    </timestep>
    <timestep time="2.80">
        <vehicle id="B" x="38.60" y="-1.20" angle="90.00" type="tB" speed="13.89" pos="38.89" lane="beg_1" slope="0.00"/>
        <vehicle id="ego" x="38.70" y="-3.45" angle="89.86" type="tEgo" speed="13.89" pos="38.99" lane="beg_0" slope="0.00"/>
    </timestep>
    <timestep time="3.00">
        <vehicle id="B" x="41.36" y="-1.20" angle="90.00" type="tB" speed="13.89" pos="41.67" lane="beg_1" slope="0.00"/>
        <vehicle id="ego" x="41.46" y="-3.45" angle="90.00" type="tEgo" speed="13.89" pos="41.77" lane="beg_0" slope="0.00"/>
    </timestep>
    <timestep time="3.20">
        <vehicle id="B" x="43.94" y="-1.20" angle="90.00" type="tB" speed="12.99" pos="44.27" lane="beg_1" slope="0.00"/>
        <vehicle id="ego" x="44.21" y="-3.45" angle="90.00" type="tEgo" speed="13.89" pos="44.55" lane="beg_0" slope="0.00"/>
    </timestep>
    <timestep time="3.40">
        <vehicle id="B" x="46.34" y="-1.20" angle="90.00" type="tB" speed="12.09" pos="46.69" lane="beg_1" slope="0.00"/>
        <vehicle id="ego" x="46.97" y="-3.45" angle="90.00" type="tEgo" speed="13.89" pos="47.33" lane="beg_0" slope="0.00"/>
    </timestep>
    <timestep time="3.60">
        <vehicle id="B" x="48.56" y="-1.20" angle="90.00" type="tB" speed="11.19" pos="48.92" lane="beg_1" slope="0.00"/>
        <vehicle id="ego" x="49.73" y="-3.45" angle="90.00" type="tEgo" speed="13.89" pos="50.10" lane="beg_0" slope="0.00"/>
    </timestep>
    <timestep time="3.80">
        <vehicle id="B" x="50.60" y="-1.20" angle="90.00" type="tB" speed="10.29" pos="50.98" lane="beg_1" slope="0.00"/>
        <vehicle id="ego" x="52.49" y="-3.45" angle="90.00" type="tEgo" speed="13.89" pos="52.88" lane="beg_0" slope="0.00"/>
    </timestep>
    <timestep time="4.00">
        <vehicle id="B" x="52.75" y="-1.20" angle="90.00" type="tB" speed="10.81" pos="53.14" lane="beg_1" slope="0.00"/>
        <vehicle id="ego" x="55.24" y="-3.45" angle="90.00" type="tEgo" speed="13.89" pos="55.66" lane="beg_0" slope="0.00"/>
    </timestep>
    <timestep time="4.20">
        <vehicle id="B" x="54.95" y="-1.20" angle="90.00" type="tB" speed="11.11" pos="55.37" lane="beg_1" slope="0.00"/>
        <vehicle id="ego" x="58.00" y="-3.45" angle="90.00" type="tEgo" speed="13.89" pos="58.44" lane="beg_0" slope="0.00"/>
    </timestep>
    <timestep time="4.40">
        <vehicle id="B" x="57.16" y="-1.20" angle="90.00" type="tB" speed="11.11" pos="57.59" lane="beg_1" slope="0.00"/>
        <vehicle id="ego" x="60.76" y="-3.45" angle="90.00" type="tEgo" speed="13.89" pos="61.22" lane="beg_0" slope="0.00"/>
    </timestep>
    <timestep time="4.60">
        <vehicle id="B" x="59.36" y="-1.20" angle="90.00" type="tB" speed="11.11" pos="59.81" lane="beg_1" slope="0.00"/>
        <vehicle id="ego" x="63.51" y="-3.45" angle="90.00" type="tEgo" speed="13.89" pos="63.99" lane="beg_0" slope="0.00"/>
    </timestep>
    <timestep time="4.80">
        <vehicle id="B" x="61.57" y="-1.20" angle="90.00" type="tB" speed="11.11" pos="62.03" lane="beg_1" slope="0.00"/>
        <vehicle id="ego" x="66.27" y="-3.45" angle="90.00" type="tEgo" speed="13.89" pos="66.77" lane="beg_0" slope="0.00"/>
    </timestep>
    <timestep time="5.00">
        <vehicle id="B" x="63.77" y="-1.20" angle="90.00" type="tB" speed="11.11" pos="64.26" lane="beg_1" slope="0.00"/>
        <vehicle id="ego" x="69.03" y="-3.45" angle="90.00" type="tEgo" speed="13.89" pos="69.55" lane="beg_0" slope="0.00"/>
    </timestep>
    <timestep time="5.20">
        <vehicle id="B" x="65.98" y="-1.20" angle="90.00" type="tB" speed="11.11" pos="66.48" lane="beg_1" slope="0.00"/>
        <vehicle id="ego" x="71.79" y="-3.45" angle="90.00" type="tEgo" speed="13.89" pos="72.33" lane="beg_0" slope="0.00"/>
    </timestep>
    <timestep time="5.40">
        <vehicle id="B" x="68.19" y="-1.20" angle="90.00" type="tB" speed="11.11" pos="68.70" lane="beg_1" slope="0.00"/>
        <vehicle id="ego" x="74.54" y="-3.45" angle="90.00" type="tEgo" speed="13.89" pos="75.11" lane="beg_0" slope="0.00"/>
    </timestep>
    <timestep time="5.60">
        <vehicle id="B" x="70.39" y="-1.20" angle="90.00" type="tB" speed="11.11" pos="70.92" lane="beg_1" slope="0.00"/>
        <vehicle id="ego" x="77.30" y="-3.45" angle="90.00" type="tEgo" speed="13.89" pos="77.88" lane="beg_0" slope="0.00"/>
    </timestep>
    <timestep time="5.80">
        <vehicle id="B" x="72.60" y="-1.20" angle="90.00" type="tB" speed="11.11" pos="73.15" lane="beg_1" slope="0.00"/>
        <vehicle id="ego" x="80.06" y="-3.45" angle="90.00" type="tEgo" speed="13.89" pos="80.66" lane="beg_0" slope="0.00"/>
    </timestep>
    <timestep time="6.00">
        <vehicle id="B" x="74.80" y="-1.20" angle="90.00" type="tB" speed="11.11" pos="75.37" lane="beg_1" slope="0.00"/>
        <vehicle id="ego" x="82.81" y="-3.45" angle="90.00" type="tEgo" speed="13.89" pos="83.44" lane="beg_0" slope="0.00"/>
    </timestep>
    <timestep time="6.20">
        <vehicle id="B" x="77.01" y="-1.20" angle="90.00" type="tB" speed="11.11" pos="77.59" lane="beg_1" slope="0.00"/>
        <vehicle id="ego" x="85.57" y="-3.45" angle="90.00" type="tEgo" speed="13.89" pos="86.22" lane="beg_0" slope="0.00"/>
    </timestep>
    <timestep time="6.40">
        <vehicle id="B" x="79.21" y="-1.20" angle="90.00" type="tB" speed="11.11" pos="79.81" lane="beg_1" slope="0.00"/>
        <vehicle id="ego" x="88.33" y="-3.45" angle="90.00" type="tEgo" speed="13.89" pos="89.00" lane="beg_0" slope="0.00"/>
    </timestep>
    <timestep time="6.60">
        <vehicle id="B" x="81.42" y="-1.20" angle="90.00" type="tB" speed="11.11" pos="82.04" lane="beg_1" slope="0.00"/>
        <vehicle id="ego" x="91.09" y="-3.45" angle="90.00" type="tEgo" speed="13.89" pos="91.77" lane="beg_0" slope="0.00"/>
    </timestep>
    <timestep time="6.80">
        <vehicle id="B" x="83.63" y="-1.20" angle="90.00" type="tB" speed="11.11" pos="84.26" lane="beg_1" slope="0.00"/>
        <vehicle id="ego" x="93.84" y="-3.45" angle="90.00" type="tEgo" speed="13.89" pos="94.55" lane="beg_0" slope="0.00"/>
    </timestep>
    <timestep time="7.00">
        <vehicle id="B" x="85.83" y="-1.20" angle="90.00" type="tB" speed="11.11" pos="86.48" lane="beg_1" slope="0.00"/>
        <vehicle id="ego" x="96.60" y="-3.45" angle="90.00" type="tEgo" speed="13.89" pos="97.33" lane="beg_0" slope="0.00"/>
    </timestep>
    <timestep time="7.20">
        <vehicle id="B" x="88.04" y="-1.20" angle="90.00" type="tB" speed="11.11" pos="88.70" lane="beg_1" slope="0.00"/>
        <vehicle id="ego" x="99.36" y="-3.41" angle="89.71" type="tEgo" speed="13.89" pos="100.11" lane="beg_0" slope="0.00"/>
    </timestep>
    <timestep time="7.40">
        <vehicle id="B" x="90.26" y="-1.20" angle="90.00" type="tB" speed="11.18" pos="90.94" lane="beg_1" slope="0.00"/>
        <vehicle id="ego" x="102.11" y="-3.23" angle="89.41" type="tEgo" speed="13.89" pos="102.89" lane="beg_1" slope="0.00"/>
    </timestep>
    <timestep time="7.60">
        <vehicle id="B" x="92.51" y="-1.20" angle="90.00" type="tB" speed="11.34" pos="93.21" lane="beg_1" slope="0.00"/>
        <vehicle id="ego" x="104.87" y="-3.11" angle="89.12" type="tEgo" speed="13.89" pos="105.66" lane="beg_1" slope="0.00"/>
    </timestep>
    <timestep time="7.80">
        <vehicle id="B" x="94.79" y="-1.20" angle="90.00" type="tB" speed="11.49" pos="95.51" lane="beg_1" slope="0.00"/>
        <vehicle id="ego" x="107.63" y="-2.95" angle="88.82" type="tEgo" speed="13.89" pos="108.44" lane="beg_1" slope="0.00"/>
    </timestep>
    <timestep time="8.00">
        <vehicle id="B" x="97.10" y="-1.20" angle="90.00" type="tB" speed="11.63" pos="97.83" lane="beg_1" slope="0.00"/>
        <vehicle id="ego" x="110.39" y="-2.75" angle="88.53" type="tEgo" speed="13.89" pos="111.22" lane="beg_1" slope="0.00"/>
    </timestep>
    <timestep time="8.20">
        <vehicle id="B" x="99.43" y="-1.20" angle="90.00" type="tB" speed="11.76" pos="100.18" lane="beg_1" slope="0.00"/>
        <vehicle id="ego" x="113.14" y="-2.55" angle="88.53" type="tEgo" speed="13.89" pos="114.00" lane="beg_1" slope="0.00"/>
    </timestep>
    <timestep time="8.40">
        <vehicle id="B" x="101.79" y="-1.20" angle="90.00" type="tB" speed="11.88" pos="102.56" lane="beg_1" slope="0.00"/>
        <vehicle id="ego" x="115.90" y="-2.35" angle="88.53" type="tEgo" speed="13.89" pos="116.78" lane="beg_1" slope="0.00"/>
    </timestep>
    <timestep time="8.60">
        <vehicle id="B" x="104.17" y="-1.20" angle="90.00" type="tB" speed="11.99" pos="104.96" lane="beg_1" slope="0.00"/>
        <vehicle id="ego" x="118.66" y="-2.15" angle="88.53" type="tEgo" speed="13.89" pos="119.55" lane="beg_1" slope="0.00"/>
    </timestep>
    <timestep time="8.80">
        <vehicle id="B" x="106.57" y="-1.20" angle="90.00" type="tB" speed="12.10" pos="107.38" lane="beg_1" slope="0.00"/>
        <vehicle id="ego" x="121.41" y="-1.99" angle="88.82" type="tEgo" speed="13.89" pos="122.33" lane="beg_1" slope="0.00"/>
    </timestep>
    <timestep time="9.00">
        <vehicle id="B" x="108.99" y="-1.24" angle="90.31" type="tB" speed="12.20" pos="109.82" lane="beg_1" slope="0.00"/>
        <vehicle id="ego" x="124.17" y="-1.87" angle="89.12" type="tEgo" speed="13.89" pos="125.11" lane="beg_1" slope="0.00"/>
    </timestep>
    <timestep time="9.20">
        <vehicle id="B" x="111.43" y="-1.32" angle="90.61" type="tB" speed="12.29" pos="112.27" lane="beg_1" slope="0.00"/>
        <vehicle id="ego" x="126.93" y="-1.79" angle="89.41" type="tEgo" speed="13.89" pos="127.89" lane="beg_1" slope="0.00"/>
    </timestep>
    <timestep time="9.40">
        <vehicle id="B" x="113.89" y="-1.32" angle="90.00" type="tB" speed="12.38" pos="114.75" lane="beg_1" slope="0.00"/>
        <vehicle id="ego" x="129.69" y="-1.71" angle="89.41" type="tEgo" speed="13.89" pos="130.67" lane="beg_1" slope="0.00"/>
    </timestep>
    <timestep time="9.60">
        <vehicle id="B" x="116.36" y="-1.32" angle="90.00" type="tB" speed="12.46" pos="117.24" lane="beg_1" slope="0.00"/>
        <vehicle id="ego" x="132.44" y="-1.67" angle="89.71" type="tEgo" speed="13.89" pos="133.44" lane="beg_1" slope="0.00"/>
    </timestep>
    <timestep time="9.80">
        <vehicle id="B" x="118.85" y="-1.36" angle="90.31" type="tB" speed="12.54" pos="119.75" lane="beg_1" slope="0.00"/>
        <vehicle id="ego" x="135.20" y="-1.67" angle="90.00" type="tEgo" speed="13.89" pos="136.22" lane="beg_1" slope="0.00"/>
    </timestep>
    <timestep time="10.00">
        <vehicle id="B" x="121.36" y="-1.44" angle="90.61" type="tB" speed="12.62" pos="122.27" lane="beg_1" slope="0.00"/>
        <vehicle id="ego" x="137.96" y="-1.65" angle="89.84" type="tEgo" speed="13.89" pos="139.00" lane="beg_1" slope="0.00"/>
    </timestep>
    <timestep time="10.20">
        <vehicle id="B" x="123.87" y="-1.52" angle="90.61" type="tB" speed="12.68" pos="124.81" lane="beg_1" slope="0.00"/>
        <vehicle id="ego" x="140.71" y="-1.65" angle="90.00" type="tEgo" speed="13.89" pos="141.78" lane="beg_1" slope="0.00"/>
    </timestep>
    <timestep time="10.40">
        <vehicle id="B" x="126.40" y="-1.60" angle="90.61" type="tB" speed="12.75" pos="127.36" lane="beg_1" slope="0.00"/>
        <vehicle id="ego" x="143.47" y="-1.65" angle="90.00" type="tEgo" speed="13.89" pos="144.56" lane="beg_1" slope="0.00"/>
    </timestep>
    <timestep time="10.60">
        <vehicle id="B" x="128.95" y="-1.64" angle="90.30" type="tB" speed="12.81" pos="129.92" lane="beg_1" slope="0.00"/>
        <vehicle id="ego" x="146.23" y="-1.65" angle="90.00" type="tEgo" speed="13.89" pos="147.33" lane="beg_1" slope="0.00"/>
    </timestep>
    <timestep time="10.80">
        <vehicle id="B" x="131.50" y="-1.64" angle="90.00" type="tB" speed="12.86" pos="132.49" lane="beg_1" slope="0.00"/>
        <vehicle id="ego" x="148.99" y="-1.65" angle="90.00" type="tEgo" speed="13.89" pos="150.11" lane="beg_1" slope="0.00"/>
    </timestep>
    <timestep time="11.00">
        <vehicle id="B" x="134.06" y="-1.65" angle="90.07" type="tB" speed="12.92" pos="135.08" lane="beg_1" slope="0.00"/>
        <vehicle id="ego" x="151.74" y="-1.65" angle="90.00" type="tEgo" speed="13.89" pos="152.89" lane="beg_1" slope="0.00"/>
    </timestep>
    <timestep time="11.20">
        <vehicle id="B" x="136.64" y="-1.65" angle="90.00" type="tB" speed="12.97" pos="137.67" lane="beg_1" slope="0.00"/>
        <vehicle id="ego" x="154.50" y="-1.65" angle="90.00" type="tEgo" speed="13.89" pos="155.67" lane="beg_1" slope="0.00"/>
    </timestep>
    <timestep time="11.40">
        <vehicle id="B" x="139.22" y="-1.65" angle="90.00" type="tB" speed="13.02" pos="140.27" lane="beg_1" slope="0.00"/>
        <vehicle id="ego" x="157.26" y="-1.65" angle="90.00" type="tEgo" speed="13.89" pos="158.45" lane="beg_1" slope="0.00"/>
    </timestep>
    <timestep time="11.60">
        <vehicle id="B" x="141.82" y="-1.65" angle="90.00" type="tB" speed="13.06" pos="142.89" lane="beg_1" slope="0.00"/>
        <vehicle id="ego" x="160.01" y="-1.65" angle="90.00" type="tEgo" speed="13.89" pos="161.22" lane="beg_1" slope="0.00"/>
    </timestep>
    <timestep time="11.80">
        <vehicle id="B" x="144.42" y="-1.65" angle="90.00" type="tB" speed="13.11" pos="145.51" lane="beg_1" slope="0.00"/>
        <vehicle id="ego" x="162.77" y="-1.65" angle="90.00" type="tEgo" speed="13.89" pos="164.00" lane="beg_1" slope="0.00"/>
    </timestep>
    <timestep time="12.00">
        <vehicle id="B" x="147.03" y="-1.65" angle="90.00" type="tB" speed="13.15" pos="148.14" lane="beg_1" slope="0.00"/>
        <vehicle id="ego" x="165.53" y="-1.65" angle="90.00" type="tEgo" speed="13.89" pos="166.78" lane="beg_1" slope="0.00"/>
    </timestep>
    <timestep time="12.20">
        <vehicle id="B" x="149.64" y="-1.65" angle="90.00" type="tB" speed="13.19" pos="150.78" lane="beg_1" slope="0.00"/>
        <vehicle id="ego" x="168.29" y="-1.65" angle="90.00" type="tEgo" speed="13.89" pos="169.56" lane="beg_1" slope="0.00"/>
    </timestep>
    <timestep time="12.40">
        <vehicle id="B" x="152.27" y="-1.65" angle="90.00" type="tB" speed="13.22" pos="153.42" lane="beg_1" slope="0.00"/>
        <vehicle id="ego" x="171.04" y="-1.65" angle="90.00" type="tEgo" speed="13.89" pos="172.34" lane="beg_1" slope="0.00"/>
    </timestep>
    <timestep time="12.60">
        <vehicle id="B" x="154.90" y="-1.65" angle="90.00" type="tB" speed="13.26" pos="156.07" lane="beg_1" slope="0.00"/>
        <vehicle id="ego" x="173.80" y="-1.65" angle="90.00" type="tEgo" speed="13.89" pos="175.11" lane="beg_1" slope="0.00"/>
    </timestep>
    <timestep time="12.80">
        <vehicle id="B" x="157.54" y="-1.65" angle="90.00" type="tB" speed="13.29" pos="158.73" lane="beg_1" slope="0.00"/>
        <vehicle id="ego" x="176.56" y="-1.65" angle="90.00" type="tEgo" speed="13.89" pos="177.89" lane="beg_1" slope="0.00"/>
    </timestep>
    <timestep time="13.00">
        <vehicle id="B" x="160.18" y="-1.65" angle="90.00" type="tB" speed="13.32" pos="161.40" lane="beg_1" slope="0.00"/>
        <vehicle id="ego" x="179.31" y="-1.65" angle="90.00" type="tEgo" speed="13.89" pos="180.67" lane="beg_1" slope="0.00"/>
    </timestep>
    <timestep time="13.20">
        <vehicle id="B" x="162.84" y="-1.65" angle="90.00" type="tB" speed="13.35" pos="164.07" lane="beg_1" slope="0.00"/>
        <vehicle id="ego" x="182.07" y="-1.65" angle="90.00" type="tEgo" speed="13.89" pos="183.45" lane="beg_1" slope="0.00"/>
    </timestep>
    <timestep time="13.40">
        <vehicle id="B" x="165.49" y="-1.65" angle="90.00" type="tB" speed="13.38" pos="166.74" lane="beg_1" slope="0.00"/>
        <vehicle id="ego" x="184.83" y="-1.65" angle="90.00" type="tEgo" speed="13.89" pos="186.23" lane="beg_1" slope="0.00"/>
    </timestep>
    <timestep time="13.60">
        <vehicle id="B" x="168.15" y="-1.65" angle="90.00" type="tB" speed="13.41" pos="169.42" lane="beg_1" slope="0.00"/>
        <vehicle id="ego" x="187.59" y="-1.65" angle="90.00" type="tEgo" speed="13.89" pos="189.00" lane="beg_1" slope="0.00"/>
    </timestep>
    <timestep time="13.80">
        <vehicle id="B" x="170.82" y="-1.65" angle="90.00" type="tB" speed="13.43" pos="172.11" lane="beg_1" slope="0.00"/>
        <vehicle id="ego" x="190.34" y="-1.65" angle="90.00" type="tEgo" speed="13.89" pos="191.78" lane="beg_1" slope="0.00"/>
    </timestep>
    <timestep time="14.00">
        <vehicle id="B" x="173.49" y="-1.65" angle="90.00" type="tB" speed="13.46" pos="174.80" lane="beg_1" slope="0.00"/>
        <vehicle id="ego" x="193.10" y="-1.65" angle="90.00" type="tEgo" speed="13.89" pos="194.56" lane="beg_1" slope="0.00"/>
    </timestep>
    <timestep time="14.20">
        <vehicle id="B" x="176.17" y="-1.65" angle="90.00" type="tB" speed="13.48" pos="177.50" lane="beg_1" slope="0.00"/>
        <vehicle id="ego" x="195.86" y="-1.65" angle="90.00" type="tEgo" speed="13.89" pos="197.34" lane="beg_1" slope="0.00"/>
    </timestep>
    <timestep time="14.40">
        <vehicle id="B" x="178.85" y="-1.65" angle="90.00" type="tB" speed="13.50" pos="180.20" lane="beg_1" slope="0.00"/>
        <vehicle id="ego" x="201.61" y="-1.65" angle="90.00" type="tEgo" speed="13.89" pos="0.12" lane="end_0" slope="0.00"/>
    </timestep>
    <timestep time="14.60">
        <vehicle id="B" x="181.53" y="-1.65" angle="90.00" type="tB" speed="13.52" pos="182.90" lane="beg_1" slope="0.00"/>
        <vehicle id="ego" x="204.35" y="-1.65" angle="90.00" type="tEgo" speed="13.89" pos="2.89" lane="end_0" slope="0.00"/>
    </timestep>
    <timestep time="14.80">
        <vehicle id="B" x="184.22" y="-1.65" angle="90.00" type="tB" speed="13.54" pos="185.61" lane="beg_1" slope="0.00"/>
        <vehicle id="ego" x="207.09" y="-1.65" angle="90.00" type="tEgo" speed="13.89" pos="5.67" lane="end_0" slope="0.00"/>
    </timestep>
    <timestep time="15.00">
        <vehicle id="B" x="186.91" y="-1.65" angle="90.00" type="tB" speed="13.56" pos="188.32" lane="beg_1" slope="0.00"/>
        <vehicle id="ego" x="209.82" y="-1.65" angle="90.00" type="tEgo" speed="13.89" pos="8.45" lane="end_0" slope="0.00"/>
    </timestep>
    <timestep time="15.20">
        <vehicle id="B" x="189.60" y="-1.65" angle="90.00" type="tB" speed="13.57" pos="191.04" lane="beg_1" slope="0.00"/>
        <vehicle id="ego" x="212.56" y="-1.65" angle="90.00" type="tEgo" speed="13.89" pos="11.23" lane="end_0" slope="0.00"/>
    </timestep>
    <timestep time="15.40">
        <vehicle id="B" x="192.30" y="-1.65" angle="90.00" type="tB" speed="13.59" pos="193.76" lane="beg_1" slope="0.00"/>
        <vehicle id="ego" x="215.30" y="-1.65" angle="90.00" type="tEgo" speed="13.89" pos="14.01" lane="end_0" slope="0.00"/>
    </timestep>
    <timestep time="15.60">
        <vehicle id="B" x="195.00" y="-1.65" angle="90.00" type="tB" speed="13.60" pos="196.48" lane="beg_1" slope="0.00"/>
        <vehicle id="ego" x="218.03" y="-1.65" angle="90.00" type="tEgo" speed="13.89" pos="16.78" lane="end_0" slope="0.00"/>
    </timestep>
    <timestep time="15.80">
        <vehicle id="B" x="197.71" y="-1.65" angle="90.00" type="tB" speed="13.62" pos="199.20" lane="beg_1" slope="0.00"/>
        <vehicle id="ego" x="220.77" y="-1.65" angle="90.00" type="tEgo" speed="13.89" pos="19.56" lane="end_0" slope="0.00"/>
    </timestep>
    <timestep time="16.00">
        <vehicle id="B" x="203.40" y="-1.65" angle="90.00" type="tB" speed="13.63" pos="1.93" lane="end_0" slope="0.00"/>
        <vehicle id="ego" x="223.50" y="-1.65" angle="90.00" type="tEgo" speed="13.89" pos="22.34" lane="end_0" slope="0.00"/>
    </timestep>
    <timestep time="16.20">
        <vehicle id="B" x="206.09" y="-1.65" angle="90.00" type="tB" speed="13.65" pos="4.66" lane="end_0" slope="0.00"/>
        <vehicle id="ego" x="226.24" y="-1.65" angle="90.00" type="tEgo" speed="13.89" pos="25.12" lane="end_0" slope="0.00"/>
    </timestep>
    <timestep time="16.40">
        <vehicle id="B" x="208.78" y="-1.65" angle="90.00" type="tB" speed="13.66" pos="7.39" lane="end_0" slope="0.00"/>
        <vehicle id="ego" x="228.98" y="-1.65" angle="90.00" type="tEgo" speed="13.89" pos="27.90" lane="end_0" slope="0.00"/>
    </timestep>
    <timestep time="16.60">
        <vehicle id="B" x="211.47" y="-1.65" angle="90.00" type="tB" speed="13.67" pos="10.12" lane="end_0" slope="0.00"/>
        <vehicle id="ego" x="231.71" y="-1.65" angle="90.00" type="tEgo" speed="13.89" pos="30.67" lane="end_0" slope="0.00"/>
    </timestep>
    <timestep time="16.80">
        <vehicle id="B" x="214.16" y="-1.65" angle="90.00" type="tB" speed="13.68" pos="12.86" lane="end_0" slope="0.00"/>
        <vehicle id="ego" x="234.45" y="-1.65" angle="90.00" type="tEgo" speed="13.89" pos="33.45" lane="end_0" slope="0.00"/>
    </timestep>
    <timestep time="17.00">
        <vehicle id="B" x="216.86" y="-1.65" angle="90.00" type="tB" speed="13.69" pos="15.60" lane="end_0" slope="0.00"/>
        <vehicle id="ego" x="237.19" y="-1.65" angle="90.00" type="tEgo" speed="13.89" pos="36.23" lane="end_0" slope="0.00"/>
    </timestep>
    <timestep time="17.20">
        <vehicle id="B" x="219.56" y="-1.65" angle="90.00" type="tB" speed="13.70" pos="18.34" lane="end_0" slope="0.00"/>
        <vehicle id="ego" x="239.92" y="-1.65" angle="90.00" type="tEgo" speed="13.89" pos="39.01" lane="end_0" slope="0.00"/>
    </timestep>
    <timestep time="17.40">
        <vehicle id="B" x="222.26" y="-1.65" angle="90.00" type="tB" speed="13.71" pos="21.08" lane="end_0" slope="0.00"/>
        <vehicle id="ego" x="242.66" y="-1.65" angle="90.00" type="tEgo" speed="13.89" pos="41.79" lane="end_0" slope="0.00"/>
    </timestep>
    <timestep time="17.60">
        <vehicle id="B" x="224.96" y="-1.65" angle="90.00" type="tB" speed="13.72" pos="23.82" lane="end_0" slope="0.00"/>
        <vehicle id="ego" x="245.40" y="-1.65" angle="90.00" type="tEgo" speed="13.89" pos="44.56" lane="end_0" slope="0.00"/>
    </timestep>
    <timestep time="17.80">
        <vehicle id="B" x="227.67" y="-1.65" angle="90.00" type="tB" speed="13.73" pos="26.57" lane="end_0" slope="0.00"/>
        <vehicle id="ego" x="248.13" y="-1.65" angle="90.00" type="tEgo" speed="13.89" pos="47.34" lane="end_0" slope="0.00"/>
    </timestep>
    <timestep time="18.00">
        <vehicle id="B" x="230.37" y="-1.65" angle="90.00" type="tB" speed="13.74" pos="29.31" lane="end_0" slope="0.00"/>
        <vehicle id="ego" x="250.87" y="-1.65" angle="90.00" type="tEgo" speed="13.89" pos="50.12" lane="end_0" slope="0.00"/>
    </timestep>
    <timestep time="18.20">
        <vehicle id="B" x="233.08" y="-1.65" angle="90.00" type="tB" speed="13.74" pos="32.06" lane="end_0" slope="0.00"/>
        <vehicle id="ego" x="253.60" y="-1.65" angle="90.00" type="tEgo" speed="13.89" pos="52.90" lane="end_0" slope="0.00"/>
    </timestep>
    <timestep time="18.40">
        <vehicle id="B" x="235.79" y="-1.65" angle="90.00" type="tB" speed="13.75" pos="34.81" lane="end_0" slope="0.00"/>
        <vehicle id="ego" x="256.34" y="-1.65" angle="90.00" type="tEgo" speed="13.89" pos="55.68" lane="end_0" slope="0.00"/>
    </timestep>
    <timestep time="18.60">
        <vehicle id="B" x="238.50" y="-1.65" angle="90.00" type="tB" speed="13.76" pos="37.56" lane="end_0" slope="0.00"/>
        <vehicle id="ego" x="259.08" y="-1.65" angle="90.00" type="tEgo" speed="13.89" pos="58.45" lane="end_0" slope="0.00"/>
    </timestep>
    <timestep time="18.80">
        <vehicle id="B" x="241.21" y="-1.65" angle="90.00" type="tB" speed="13.76" pos="40.32" lane="end_0" slope="0.00"/>
        <vehicle id="ego" x="261.81" y="-1.65" angle="90.00" type="tEgo" speed="13.89" pos="61.23" lane="end_0" slope="0.00"/>
    </timestep>
    <timestep time="19.00">
        <vehicle id="B" x="243.93" y="-1.65" angle="90.00" type="tB" speed="13.77" pos="43.07" lane="end_0" slope="0.00"/>
        <vehicle id="ego" x="264.55" y="-1.65" angle="90.00" type="tEgo" speed="13.89" pos="64.01" lane="end_0" slope="0.00"/>
    </timestep>
    <timestep time="19.20">
        <vehicle id="B" x="246.64" y="-1.65" angle="90.00" type="tB" speed="13.78" pos="45.83" lane="end_0" slope="0.00"/>
        <vehicle id="ego" x="267.29" y="-1.65" angle="90.00" type="tEgo" speed="13.89" pos="66.79" lane="end_0" slope="0.00"/>
    </timestep>
    <timestep time="19.40">
        <vehicle id="B" x="249.36" y="-1.65" angle="90.00" type="tB" speed="13.78" pos="48.58" lane="end_0" slope="0.00"/>
        <vehicle id="ego" x="270.02" y="-1.65" angle="90.00" type="tEgo" speed="13.89" pos="69.57" lane="end_0" slope="0.00"/>
    </timestep>
    <timestep time="19.60">
        <vehicle id="B" x="252.07" y="-1.65" angle="90.00" type="tB" speed="13.79" pos="51.34" lane="end_0" slope="0.00"/>