<?xml version="1.0" encoding="UTF-8"?>

<!-- generated on 2021-09-21 08:30:23 by Eclipse SUMO marouter Version v1_10_0+0845-04fca0a
This data file and the accompanying materials
are made available under the terms of the Eclipse Public License v2.0
which accompanies this distribution, and is available at
http://www.eclipse.org/legal/epl-v20.html
SPDX-License-Identifier: EPL-2.0
<configuration xmlns:xsi="http://www.w3.org/2001/XMLSchema-instance" xsi:noNamespaceSchemaLocation="http://sumo.dlr.de/xsd/marouterConfiguration.xsd">

    <input>
        <net-file value="input_net.net.xml"/>
        <additional-files value="input_taz.taz.xml"/>
        <od-matrix-files value="input_od_v.fma"/>
    </input>

    <output>
        <output-file value="routes.rou.xml"/>
        <netload-output value="aggregated.xml"/>
        <write-license value="true"/>
    </output>

    <processing>
        <scale value="0.25"/>
    </processing>

    <report>
        <xml-validation value="never"/>
        <xml-validation.routes value="never"/>
    </report>

</configuration>
-->

<meandata>
    <interval begin="0.00" end="3600.00">
        <edge id="beg" traveltime="17.99" speed="27.80" speedRelative="1.00" entered="0.00" density="0.00" laneDensity="0.00" flowCapacityRatio="0.00"/>
        <edge id="beg2left" traveltime="18.22" speed="27.61" speedRelative="0.99" entered="8.75" density="0.09" laneDensity="0.09" flowCapacityRatio="0.44"/>
        <edge id="end" traveltime="18.16" speed="27.54" speedRelative="0.99" entered="25.00" density="0.25" laneDensity="0.13" flowCapacityRatio="0.62"/>
        <edge id="left" traveltime="36.44" speed="27.61" speedRelative="0.99" entered="8.75" density="0.09" laneDensity="0.09" flowCapacityRatio="0.44"/>
        <edge id="left2end" traveltime="18.22" speed="27.61" speedRelative="0.99" entered="8.75" density="0.09" laneDensity="0.09" flowCapacityRatio="0.44"/>
        <edge id="middle" traveltime="72.84" speed="13.73" speedRelative="0.99" entered="16.25" density="0.33" laneDensity="0.33" flowCapacityRatio="0.81"/>
        <edge id="rend" traveltime="17.99" speed="27.80" speedRelative="1.00" entered="0.00" density="0.00" laneDensity="0.00" flowCapacityRatio="0.00"/>
    </interval>
</meandata>
