<?xml version="1.0" encoding="UTF-8"?>

<!-- generated on 11/03/16 13:10:38 by SUMO Version dev-SVN-r21868
<?xml version="1.0" encoding="UTF-8"?>

<configuration xmlns:xsi="http://www.w3.org/2001/XMLSchema-instance" xsi:noNamespaceSchemaLocation="http://sumo.dlr.de/xsd/sumoConfiguration.xsd">

    <input>
        <net-file value="net.net.xml"/>
        <route-files value="input_routes.rou.xml"/>
    </input>

    <output>
        <vehroute-output value="vehroutes.xml"/>
    </output>

    <report>
        <xml-validation value="never"/>
        <duration-log.disable value="true"/>
        <no-step-log value="true"/>
    </report>

</configuration>
-->

<routes xmlns:xsi="http://www.w3.org/2001/XMLSchema-instance" xsi:noNamespaceSchemaLocation="http://sumo.dlr.de/xsd/routes_file.xsd">
    <vehicle id="veh0" depart="1.00" arrival="206.00">
        <route edges="beg end"/>
        <stop lane="end_0" endPos="4.00" duration="50.00"/>
        <stop lane="beg_0" endPos="16.00" duration="50.00"/>
        <stop lane="beg_0" endPos="6.00" duration="50.00"/>
    </vehicle>

</routes>
