<?xml version="1.0"?>

<!-- generated on 03/18/10 13:43:09 by SUMO sumo Version dev-SVN-r8460
<configuration>

    <input>
        <net-file value="net.net.xml"/>
        <route-files value="input_routes.rou.xml"/>
    </input>

    <output>
        <vehroute-output value="vehroutes.xml"/>
    </output>

    <report>
        <no-duration-log value="true"/>
        <no-step-log value="true"/>
    </report>

</configuration>
-->

<routes>
    <vehicle id="veh0" depart="1.00" arrival="440.00">
        <route edges="beg end"/>
    </vehicle>

</routes>
