<?xml version="1.0" encoding="UTF-8"?>

<!-- generated on Wed Mar 24 11:30:22 2021 by Eclipse SUMO sumo Version v1_8_0+1753-c7eacbff8e
<configuration xmlns:xsi="http://www.w3.org/2001/XMLSchema-instance" xsi:noNamespaceSchemaLocation="http://sumo.dlr.de/xsd/sumoConfiguration.xsd">

    <input>
        <net-file value="input_net.net.xml"/>
        <route-files value="input_routes.rou.xml"/>
    </input>

    <output>
        <fcd-output value="fcd.xml"/>
    </output>

    <report>
        <no-step-log value="true"/>
    </report>

    <traci_server>
        <remote-port value="52493"/>
    </traci_server>

</configuration>
-->

<fcd-export xmlns:xsi="http://www.w3.org/2001/XMLSchema-instance" xsi:noNamespaceSchemaLocation="http://sumo.dlr.de/xsd/fcd_file.xsd">
    <timestep time="0.00">
        <vehicle id="v0" x="5.10" y="-8.00" angle="90.00" type="DEFAULT_VEHTYPE" speed="0.00" pos="5.10" lane="gneE0_0" slope="0.00"/>
    </timestep>
    <timestep time="1.00">
        <vehicle id="v0" x="7.44" y="-8.00" angle="90.00" type="DEFAULT_VEHTYPE" speed="2.34" pos="7.44" lane="gneE0_0" slope="0.00"/>
    </timestep>
    <timestep time="2.00">
        <vehicle id="v0" x="11.22" y="-8.00" angle="90.00" type="DEFAULT_VEHTYPE" speed="3.78" pos="11.22" lane="gneE0_0" slope="0.00"/>
    </timestep>
    <timestep time="3.00">
        <vehicle id="v0" x="17.45" y="-8.00" angle="90.00" type="DEFAULT_VEHTYPE" speed="6.23" pos="17.45" lane="gneE0_0" slope="0.00"/>
    </timestep>
    <timestep time="4.00">
        <vehicle id="v0" x="25.55" y="-8.00" angle="90.00" type="DEFAULT_VEHTYPE" speed="8.09" pos="25.55" lane="gneE0_0" slope="0.00"/>
    </timestep>
    <timestep time="5.00">
        <vehicle id="v0" x="35.94" y="-8.00" angle="90.00" type="DEFAULT_VEHTYPE" speed="10.40" pos="35.94" lane="gneE0_0" slope="0.00"/>
    </timestep>
    <timestep time="6.00">
        <vehicle id="v0" x="48.44" y="-8.00" angle="90.00" type="DEFAULT_VEHTYPE" speed="12.49" pos="48.44" lane="gneE0_0" slope="0.00"/>
    </timestep>
    <timestep time="7.00">
        <vehicle id="v0" x="62.00" y="-8.00" angle="90.00" type="DEFAULT_VEHTYPE" speed="13.56" pos="62.00" lane="gneE0_0" slope="0.00"/>
    </timestep>
    <timestep time="8.00">
        <vehicle id="v0" x="75.89" y="-8.00" angle="90.00" type="DEFAULT_VEHTYPE" speed="13.89" pos="75.89" lane="gneE0_0" slope="0.00"/>
    </timestep>
    <timestep time="9.00">
        <vehicle id="v0" x="89.48" y="-8.00" angle="90.00" type="DEFAULT_VEHTYPE" speed="13.60" pos="89.48" lane="gneE0_0" slope="0.00"/>
    </timestep>
    <timestep time="10.00">
        <vehicle id="v0" x="103.09" y="-8.00" angle="90.00" type="DEFAULT_VEHTYPE" speed="13.61" pos="103.09" lane="gneE0_0" slope="0.00"/>
    </timestep>
    <timestep time="11.00">
        <vehicle id="v0" x="116.77" y="-8.00" angle="90.00" type="DEFAULT_VEHTYPE" speed="13.68" pos="116.77" lane="gneE0_0" slope="0.00"/>
    </timestep>
    <timestep time="12.00">
        <vehicle id="v0" x="131.30" y="-8.00" angle="90.00" type="DEFAULT_VEHTYPE" speed="14.53" pos="131.30" lane="gneE0_0" slope="0.00"/>
    </timestep>
    <timestep time="13.00">
        <vehicle id="v0" x="145.58" y="-8.00" angle="90.00" type="DEFAULT_VEHTYPE" speed="14.28" pos="145.58" lane="gneE0_0" slope="0.00"/>
    </timestep>
    <timestep time="14.00">
        <vehicle id="v0" x="159.73" y="-8.00" angle="90.00" type="DEFAULT_VEHTYPE" speed="14.16" pos="159.73" lane="gneE0_0" slope="0.00"/>
    </timestep>
</fcd-export>
