<?xml version="1.0"?>

<!-- generated on 10/23/08 15:07:55 by SUMO dfrouter Version dev-SVN-r6184
<configuration>

   <input>
      <net-file>input_net.net.xml</net-file>
      <detector-files>input_detectors.det.xml</detector-files>
      <detector-flow-files>input_flows.txt</detector-flow-files>
   </input>

   <output>
      <routes-output>routes.rou.xml</routes-output>
      <detectors-output>detectors_def.det.xml</detectors-output>
      <emitters-output>emitters.add.xml</emitters-output>
   </output>

   <time>
      <end>60</end>
   </time>

   <report>
      <verbose>true</verbose>
   </report>

</configuration>
-->

<triggeredsource>
   <routedistelem id="11_21_to_20_10" probability="0.21"/>
   <routedistelem id="11_21_to_51_61" probability="0.21"/>
   <routedistelem id="11_21_to_a4_a5" probability="0.08"/>
   <routedistelem id="11_21_to_a3_b1" probability="0.50"/>
   <emit id="emitter_LI_0" time="0" speed="27.78" route="11_21_to_a3_b1"/>
   <emit id="emitter_LI_6" time="6" speed="27.78" route="11_21_to_a3_b1"/>
   <emit id="emitter_LI_12" time="12" speed="27.78" route="11_21_to_20_10"/>
   <emit id="emitter_LI_18" time="18" speed="27.78" route="11_21_to_a4_a5"/>
   <emit id="emitter_LI_24" time="24" speed="27.78" route="11_21_to_a3_b1"/>
   <emit id="emitter_LI_30" time="30" speed="27.78" route="11_21_to_20_10"/>
   <emit id="emitter_LI_36" time="36" speed="27.78" route="11_21_to_a3_b1"/>
   <emit id="emitter_LI_42" time="42" speed="27.78" route="11_21_to_51_61"/>
   <emit id="emitter_LI_48" time="48" speed="27.78" route="11_21_to_a3_b1"/>
   <emit id="emitter_LI_54" time="54" speed="27.78" route="11_21_to_a3_b1"/>
</triggeredsource>
