<?xml version="1.0" encoding="UTF-8"?>

<!-- generated on Tue Apr 26 10:29:50 2016 by SUMO Version dev-SVN-r20546
<?xml version="1.0" encoding="UTF-8"?>

<configuration xmlns:xsi="http://www.w3.org/2001/XMLSchema-instance" xsi:noNamespaceSchemaLocation="http://sumo.dlr.de/xsd/sumoConfiguration.xsd">

    <input>
        <net-file value="net.net.xml"/>
        <route-files value="routes.rou.xml"/>
    </input>

    <output>
        <netstate-dump value="netstate_dump.xml"/>
    </output>

    <report>
        <xml-validation value="never"/>
        <no-step-log value="true"/>
    </report>

    <traci_server>
        <remote-port value="21774"/>
    </traci_server>

</configuration>
-->

<netstate xmlns:xsi="http://www.w3.org/2001/XMLSchema-instance" xsi:noNamespaceSchemaLocation="http://sumo.dlr.de/xsd/netstate_file.xsd">
    <timestep time="0.00">
        <edge id="e_m0">
            <lane id="e_m0_0">
                <vehicle id="veh0" pos="0.00" speed="0.00"/>
            </lane>
            <lane id="e_m0_1"/>
            <lane id="e_m0_2"/>
        </edge>
    </timestep>
    <timestep time="1.00">
        <edge id="e_m0">
            <lane id="e_m0_0">
                <vehicle id="veh0" pos="0.80" speed="0.80"/>
                <vehicle id="veh1" pos="40.00" speed="0.00"/>
            </lane>
            <lane id="e_m0_1"/>
            <lane id="e_m0_2"/>
        </edge>
    </timestep>
    <timestep time="2.00">
        <edge id="e_m0">
            <lane id="e_m0_0">
                <vehicle id="veh0" pos="2.40" speed="1.60"/>
                <vehicle id="veh1" pos="40.80" speed="0.80"/>
            </lane>
            <lane id="e_m0_1"/>
            <lane id="e_m0_2"/>
        </edge>
    </timestep>
    <timestep time="3.00">
        <edge id="e_m0">
            <lane id="e_m0_0">
                <vehicle id="veh0" pos="4.80" speed="2.40"/>
                <vehicle id="veh1" pos="42.40" speed="1.60"/>
            </lane>
            <lane id="e_m0_1"/>
            <lane id="e_m0_2"/>
        </edge>
    </timestep>
    <timestep time="4.00">
        <edge id="e_m0">
            <lane id="e_m0_0">
                <vehicle id="veh0" pos="8.00" speed="3.20"/>
                <vehicle id="veh1" pos="44.80" speed="2.40"/>
            </lane>
            <lane id="e_m0_1"/>
            <lane id="e_m0_2"/>
        </edge>
    </timestep>
    <timestep time="5.00">
        <edge id="e_m0">
            <lane id="e_m0_0">
                <vehicle id="veh0" pos="45.32" speed="37.32"/>
                <vehicle id="veh1" pos="48.00" speed="3.20"/>
            </lane>
            <lane id="e_m0_1"/>
            <lane id="e_m0_2"/>
        </edge>
    </timestep>
    <timestep time="6.00">
        <edge id="e_m0">
            <lane id="e_m0_0">
                <vehicle id="veh1" pos="52.00" speed="4.00"/>
            </lane>
            <lane id="e_m0_1">
                <vehicle id="veh0" pos="78.14" speed="32.82"/>
            </lane>
            <lane id="e_m0_2"/>
        </edge>
    </timestep>
    <timestep time="7.00">
        <edge id="e_m0">
            <lane id="e_m0_0">
                <vehicle id="veh1" pos="56.80" speed="4.80"/>
            </lane>
            <lane id="e_m0_1">
                <vehicle id="veh0" pos="111.76" speed="33.62"/>
            </lane>
            <lane id="e_m0_2"/>
        </edge>
    </timestep>
    <timestep time="8.00">
        <edge id="e_m0">
            <lane id="e_m0_0">
                <vehicle id="veh1" pos="62.40" speed="5.60"/>
            </lane>
            <lane id="e_m0_1">
                <vehicle id="veh0" pos="146.18" speed="34.42"/>
            </lane>
            <lane id="e_m0_2"/>
        </edge>
    </timestep>
    <timestep time="9.00">
        <edge id="e_m0">
            <lane id="e_m0_0">
                <vehicle id="veh1" pos="68.80" speed="6.40"/>
            </lane>
            <lane id="e_m0_1">
                <vehicle id="veh0" pos="181.40" speed="35.22"/>
            </lane>
            <lane id="e_m0_2"/>
        </edge>
    </timestep>
    <timestep time="10.00">
        <edge id="e_m0">
            <lane id="e_m0_0">
                <vehicle id="veh1" pos="76.00" speed="7.20"/>
                <vehicle id="veh0" pos="78.15" speed="35.22"/>
            </lane>
            <lane id="e_m0_1"/>
            <lane id="e_m0_2"/>
        </edge>
    </timestep>
    <timestep time="11.00">
        <edge id="e_m0">
            <lane id="e_m0_0">
                <vehicle id="veh1" pos="78.70" speed="2.70"/>
                <vehicle id="veh0" pos="114.17" speed="36.02"/>
            </lane>
            <lane id="e_m0_1"/>
            <lane id="e_m0_2"/>
        </edge>
    </timestep>
    <timestep time="12.00">
        <edge id="e_m0">
            <lane id="e_m0_0">
                <vehicle id="veh1" pos="82.20" speed="3.50"/>
                <vehicle id="veh0" pos="150.99" speed="36.82"/>
            </lane>
            <lane id="e_m0_1"/>
            <lane id="e_m0_2"/>
        </edge>
    </timestep>
    <timestep time="13.00">
        <edge id="e_m0">
            <lane id="e_m0_0">
                <vehicle id="veh1" pos="86.50" speed="4.30"/>
                <vehicle id="veh0" pos="188.61" speed="37.62"/>
            </lane>
            <lane id="e_m0_1"/>
            <lane id="e_m0_2"/>
        </edge>
    </timestep>
    <timestep time="14.00">
        <edge id="e_m0">
            <lane id="e_m0_0">
                <vehicle id="veh1" pos="91.60" speed="5.10"/>
                <vehicle id="veh0" pos="227.03" speed="38.42"/>
            </lane>
            <lane id="e_m0_1"/>
            <lane id="e_m0_2"/>
        </edge>
    </timestep>
    <timestep time="15.00">
        <edge id="e_m0">
            <lane id="e_m0_0">
                <vehicle id="veh1" pos="97.50" speed="5.90"/>
                <vehicle id="veh0" pos="266.25" speed="39.22"/>
            </lane>
            <lane id="e_m0_1"/>
            <lane id="e_m0_2"/>
        </edge>
    </timestep>
</netstate>
