<?xml version="1.0"?>

<!-- generated on 03/25/10 08:19:10 by SUMO sumo Version dev-SVN-r8511
<configuration>

    <input>
        <net-file value="net.net.xml"/>
        <additional-files value="input_routes.rou.xml,input_additional.add.xml,input_additional2.add.xml"/>
    </input>

    <time>
        <begin value="0"/>
        <end value="100"/>
    </time>

    <report>
        <no-duration-log value="true"/>
        <no-step-log value="true"/>
    </report>

    <mesoscopic>
        <mesosim value="true"/>
    </mesoscopic>

</configuration>
-->

<detector>
    <interval begin="0.00" end="100.00" id="3/1to2/1" sampledSeconds="19.53" density="2.00" occupancy="2.00" waitingTime="0.00" speed="10.00" departed="0" arrived="0" entered="2" left="2"/>
</detector>
