<?xml version="1.0" encoding="UTF-8"?>

<!-- generated on 2025-07-08 16:24:19 by Eclipse SUMO sumo Version v1_23_1+0938-cf8b72380de
<sumoConfiguration xmlns:xsi="http://www.w3.org/2001/XMLSchema-instance" xsi:noNamespaceSchemaLocation="http://sumo.dlr.de/xsd/sumoConfiguration.xsd">

    <input>
        <net-file value="input_net.net.xml"/>
        <route-files value="input_routes.rou.xml"/>
    </input>

    <output>
        <vehroute-output value="vehroutes.xml"/>
        <save-state.times value="100"/>
        <save-state.files value="state.xml"/>
    </output>

    <routing>
        <device.rerouting.probability value="1.0"/>
        <device.rerouting.period value="10"/>
        <device.rerouting.adaptation-steps value="10"/>
    </routing>

    <report>
        <duration-log.disable value="true"/>
        <no-step-log value="true"/>
    </report>

    <mesoscopic>
        <mesosim value="true"/>
    </mesoscopic>

</sumoConfiguration>
-->

<snapshot type="meso" version="v1_23_1+0938-cf8b72380de" time="100.00" xmlns:xsi="http://www.w3.org/2001/XMLSchema-instance" xsi:noNamespaceSchemaLocation="http://sumo.dlr.de/xsd/state_file.xsd">
    <route id="!100" state="0" edges="E3E4 E4D4 D4D3 D3D2 D2E2 E2E3"/>
    <route id="!101" state="0" edges="E0D0 D0C0 C0B0 B0A0"/>
    <route id="!102" state="0" edges="C2B2 B2B1 B1B0"/>
    <route id="!103" state="0" edges="C0C1 C1B1 B1A1 A1B1"/>
    <route id="!104" state="0" edges="B4C4 C4C3 C3D3 D3E3 E3E4 E4D4"/>
    <route id="!105" state="0" edges="B2B1 B1B2 B2B3 B3C3 C3D3 D3D4"/>
    <route id="!106" state="0" edges="C1C2 C2C1 C1C0 C0D0"/>
    <route id="!107" state="0" edges="E3E2 E2D2 D2D3 D3D4 D4E4 E4E3"/>
    <route id="!108" state="0" edges="C3C4 C4C3 C3C2 C2D2 D2D1"/>
    <route id="!109" state="0" edges="A4B4 B4B3 B3B2 B2C2"/>
    <route id="!110" state="0" edges="E3E4 E4D4 D4C4 C4B4"/>
    <route id="!111" state="0" edges="C3C2 C2D2 D2E2"/>
    <route id="!112" state="0" edges="A1B1 B1B2 B2B3 B3B4 B4C4 C4B4"/>
    <route id="!113" state="0" edges="C2C3 C3C2 C2C1 C1C0 C0D0 D0E0 E0E1"/>
    <route id="!114" state="0" edges="A4B4 B4B3 B3C3 C3D3 D3E3 E3E2"/>
    <route id="!115" state="0" edges="A2A3 A3A2 A2A1 A1A0 A0B0 B0B1"/>
    <route id="!116" state="0" edges="C4C3 C3C2 C2C1 C1D1 D1D2"/>
    <route id="!117" state="0" edges="B1B2 B2A2 A2A3 A3A4"/>
    <route id="!118" state="0" edges="E1E2 E2D2 D2C2 C2B2 B2B1 B1C1"/>
    <route id="!119" state="0" edges="C4C3 C3C2 C2C1 C1C0 C0D0 D0C0"/>
    <route id="!120" state="0" edges="C0D0 D0C0 C0C1 C1C2 C2C3 C3C4 C4B4"/>
    <route id="!121" state="0" edges="C2D2 D2E2 E2E3"/>
    <route id="!122" state="0" edges="B1A1 A1A2 A2B2 B2C2 C2D2 D2D1"/>
    <route id="!123" state="0" edges="B1C1 C1C0 C0B0"/>
    <route id="!124" state="0" edges="D1D0 D0C0 C0B0 B0B1 B1B2 B2C2"/>
    <route id="!125" state="0" edges="B3B2 B2B3 B3C3 C3D3 D3C3"/>
    <route id="!126" state="0" edges="A2A1 A1B1 B1C1 C1C2"/>
    <route id="!127" state="0" edges="E4E3"/>
    <route id="!128" state="0" edges="A2A1 A1B1 B1B0"/>
    <route id="!129" state="0" edges="B2B1 B1B2 B2C2 C2D2 D2E2 E2E3"/>
    <route id="!130" state="0" edges="E1E0"/>
    <route id="!131" state="0" edges="B4B3 B3A3 A3A4 A4B4"/>
    <route id="!132" state="0" edges="D4E4 E4E3 E3D3 D3D2 D2C2"/>
    <route id="!133" state="0" edges="C4D4 D4D3 D3E3 E3E4 E4D4"/>
    <route id="!134" state="0" edges="D1C1 C1B1 B1B0 B0A0 A0A1"/>
    <route id="!135" state="0" edges="D4D3 D3C3 C3B3 B3B2 B2C2"/>
    <route id="!136" state="0" edges="D1D0 D0D1 D1D2 D2D3 D3E3 E3D3"/>
    <route id="!137" state="0" edges="A3B3 B3A3 A3A4"/>
    <route id="!138" state="0" edges="A3A2 A2A3 A3B3 B3C3 C3C4"/>
    <route id="!139" state="0" edges="B2B1 B1B2 B2B3 B3B4 B4C4 C4D4"/>
    <route id="!14" state="0" edges="E0D0 D0C0 C0C1 C1C2 C2C3 C3C4 C4D4"/>
    <route id="!140" state="0" edges="D2D1 D1C1 C1B1 B1A1"/>
    <route id="!141" state="0" edges="D0D1 D1C1 C1B1 B1B2 B2B1"/>
    <route id="!142" state="0" edges="C2C1 C1C2 C2D2 D2E2 E2D2"/>
    <route id="!143" state="0" edges="E0D0 D0C0 C0B0 B0A0 A0A1 A1A2 A2B2"/>
    <route id="!144" state="0" edges="C0D0 D0C0 C0B0 B0B1 B1B2 B2B3"/>
    <route id="!145" state="0" edges="A0A1 A1A2 A2A3 A3B3 B3C3 C3D3 D3D2"/>
    <route id="!146" state="0" edges="D0D1 D1C1 C1B1 B1B2 B2A2"/>
    <route id="!147" state="0" edges="D2E2 E2D2 D2C2 C2C3 C3C4"/>
    <route id="!148" state="0" edges="C1B1 B1B0 B0A0 A0A1"/>
    <route id="!149" state="0" edges="A2A3 A3A2 A2A1 A1B1 B1C1 C1D1 D1E1 E1E0"/>
    <route id="!150" state="0" edges="E2D2 D2C2 C2C3 C3C2"/>
    <route id="!151" state="0" edges="D4E4 E4E3 E3D3 D3C3 C3C4 C4B4"/>
    <route id="!152" state="0" edges="A4A3 A3B3"/>
    <route id="!153" state="0" edges="B3A3 A3A2 A2A1 A1B1 B1C1 C1D1 D1E1 E1E2"/>
    <route id="!154" state="0" edges="D3E3 E3D3 D3D2 D2D1 D1D0 D0E0 E0E1"/>
    <route id="!155" state="0" edges="E1E2 E2D2 D2C2 C2B2 B2B1 B1A1"/>
    <route id="!156" state="0" edges="B1C1 C1B1 B1A1 A1A2 A2A3 A3A2"/>
    <route id="!157" state="0" edges="D3D4 D4D3 D3D2 D2D1 D1E1 E1E0"/>
    <route id="!158" state="0" edges="C0C1 C1C0 C0D0 D0C0"/>
    <route id="!159" state="0" edges="A4B4 B4B3 B3B2 B2C2 C2D2 D2E2 E2E3"/>
    <route id="!160" state="0" edges="E1D1 D1D2 D2D3 D3E3 E3E4 E4D4"/>
    <route id="!161" state="0" edges="D4C4 C4C3 C3C2 C2C1 C1D1 D1E1 E1E0"/>
    <route id="!162" state="0" edges="A0B0 B0B1 B1B2 B2C2 C2D2 D2D3"/>
    <route id="!163" state="0" edges="B3B4 B4B3 B3B2 B2C2 C2D2 D2E2 E2E3"/>
    <route id="!164" state="0" edges="D4C4 C4C3 C3C2 C2C1 C1D1 D1E1 E1D1"/>
    <route id="!165" state="0" edges="D4C4 C4B4 B4B3 B3B2 B2B1"/>
    <route id="!166" state="0" edges="D3D4 D4C4 C4B4 B4A4 A4A3 A3A2"/>
    <route id="!167" state="0" edges="E1D1 D1D0 D0E0 E0E1"/>
    <route id="!168" state="0" edges="B1B0 B0B1 B1B2 B2B3 B3B4 B4C4 C4D4 D4D3"/>
    <route id="!169" state="0" edges="C1C2 C2B2 B2B3 B3A3"/>
    <route id="!170" state="0" edges="D3E3 E3D3 D3C3 C3B3 B3B2 B2B1 B1B2"/>
    <route id="!171" state="0" edges="A0B0 B0C0"/>
    <route id="!172" state="0" edges="B3B4 B4B3 B3B2 B2B1 B1C1 C1D1 D1E1 E1D1"/>
    <route id="!173" state="0" edges="E3E4 E4D4 D4C4 C4B4 B4B3 B3B2 B2B3"/>
    <route id="!174" state="0" edges="D0E0 E0E1 E1D1 D1C1 C1C0 C0B0"/>
    <route id="!175" state="0" edges="E4D4 D4C4 C4C3 C3B3"/>
    <route id="!176" state="0" edges="E3D3 D3C3 C3B3 B3A3 A3A4"/>
    <route id="!177" state="0" edges="E3E4 E4D4 D4C4 C4B4 B4B3 B3B2 B2B1 B1B0 B0B1"/>
    <route id="!178" state="0" edges="E3E4 E4D4 D4C4 C4B4 B4B3 B3B2 B2B1"/>
    <route id="!179" state="0" edges="A3A2 A2A1 A1B1 B1C1 C1B1"/>
    <route id="!18" state="0" edges="D4E4 E4E3 E3D3 D3D2 D2D1 D1D0 D0C0"/>
    <route id="!180" state="0" edges="D2D3 D3C3 C3B3 B3B2"/>
    <route id="!181" state="0" edges="C4D4 D4C4 C4C3 C3C2 C2C3"/>
    <route id="!182" state="0" edges="B4C4 C4B4"/>
    <route id="!183" state="0" edges="B2A2 A2B2 B2C2 C2D2 D2C2"/>
    <route id="!184" state="0" edges="A0A1 A1A2 A2B2 B2C2 C2D2 D2E2 E2E3"/>
    <route id="!185" state="0" edges="C3C2 C2D2 D2D1"/>
    <route id="!186" state="0" edges="D2E2 E2D2 D2D1 D1D0"/>
    <route id="!187" state="0" edges="B4B3 B3A3 A3A2 A2A1"/>
    <route id="!188" state="0" edges="D1D0 D0C0 C0B0 B0B1 B1B2 B2B3 B3B4"/>
    <route id="!189" state="0" edges="B3B2 B2B1 B1C1 C1D1 D1E1 E1E0 E0D0"/>
    <route id="!19!var#2" state="0" edges="E0E1 E1E2 E2D2 D2C2 C2C3 C3C4 C4B4"/>
    <route id="!190" state="0" edges="D2D1 D1C1 C1B1 B1B2 B2B3 B3A3"/>
    <route id="!191" state="0" edges="B3A3 A3A2 A2A1 A1A0 A0B0 B0C0 C0C1"/>
    <route id="!192" state="0" edges="C0C1 C1B1 B1B2 B2C2"/>
    <route id="!193" state="0" edges="A3B3 B3B2 B2B1 B1B0 B0C0 C0D0"/>
    <route id="!194" state="0" edges="E3D3 D3D2 D2D1 D1D2"/>
    <route id="!195" state="0" edges="E2D2 D2D1 D1D0 D0C0"/>
    <route id="!196" state="0" edges="B3A3 A3B3 B3C3 C3C2"/>
    <route id="!197" state="0" edges="A0A1 A1A2 A2B2 B2B3"/>
    <route id="!198" state="0" edges="C1B1 B1B2 B2B3 B3B4 B4C4 C4B4"/>
    <route id="!199" state="0" edges="D1C1 C1D1"/>
    <route id="!22!var#1" state="0" edges="A2A3 A3B3 B3B2 B2B1 B1B2"/>
    <route id="!24" state="0" edges="D0D1 D1C1 C1B1 B1B2 B2B3 B3B4 B4B3"/>
    <route id="!26" state="0" edges="B2B1 B1B2 B2C2 C2D2 D2E2 E2E3"/>
    <route id="!27!var#2" state="0" edges="D0E0 E0E1 E1D1 D1D2 D2D3 D3C3 C3C4 C4D4"/>
    <route id="!28!var#2" state="0" edges="B0A0 A0A1 A1B1 B1C1 C1D1 D1D2 D2D3"/>
    <route id="!29" state="0" edges="B0A0 A0A1 A1A2 A2A3 A3A4 A4B4 B4C4"/>
    <route id="!30!var#1" state="0" edges="E4E3 E3E2 E2D2 D2D1 D1D0 D0E0"/>
    <route id="!31!var#2" state="0" edges="C3C4 C4D4 D4D3 D3D2 D2D1 D1D2"/>
    <route id="!32" state="0" edges="E0D0 D0D1 D1D2 D2D3 D3D4"/>
    <route id="!35!var#2" state="0" edges="B1A1 A1B1 B1C1 C1D1 D1E1 E1E2 E2E3 E3D3"/>
    <route id="!36!var#1" state="0" edges="E1E0 E0D0 D0D1 D1D2 D2C2 C2B2 B2B3 B3B2"/>
    <route id="!40!var#1" state="0" edges="C3C4 C4C3 C3C2 C2B2 B2B1"/>
    <route id="!41!var#1" state="0" edges="C4B4 B4C4 C4C3 C3C2 C2C1 C1D1 D1E1 E1E2"/>
    <route id="!43!var#1" state="0" edges="E4E3 E3E2 E2D2 D2C2 C2C3"/>
    <route id="!44" state="0" edges="A2B2 B2A2 A2A1 A1A2"/>
    <route id="!45!var#2" state="0" edges="A3A2 A2B2 B2B1 B1C1 C1D1 D1D0 D0D1"/>
    <route id="!46!var#1" state="0" edges="D3E3 E3E2 E2D2 D2C2 C2C1 C1C0 C0D0"/>
    <route id="!47" state="0" edges="A2A1 A1A2 A2A3 A3A4 A4B4 B4C4"/>
    <route id="!48" state="0" edges="E4E3 E3D3 D3C3 C3B3"/>
    <route id="!49" state="0" edges="E3E4 E4D4 D4D3 D3D2 D2D1 D1D0 D0E0 E0E1"/>
    <route id="!50" state="0" edges="A0A1 A1A2 A2B2 B2C2 C2D2 D2D1"/>
    <route id="!51" state="0" edges="D1D2 D2C2 C2C3 C3B3"/>
    <route id="!52!var#1" state="0" edges="B2B1 B1C1 C1C0 C0D0 D0E0"/>
    <route id="!53!var#2" state="0" edges="A3A2 A2A1 A1B1 B1C1 C1B1"/>
    <route id="!54!var#1" state="0" edges="C1C2 C2D2 D2E2 E2E3 E3E2"/>
    <route id="!55!var#2" state="0" edges="E1E0 E0D0 D0C0 C0C1 C1C2 C2B2 B2B1"/>
    <route id="!56" state="0" edges="C2C3 C3B3 B3B2 B2B1 B1B0 B0B1"/>
    <route id="!58!var#1" state="0" edges="B2C2 C2C1 C1D1 D1D0 D0E0"/>
    <route id="!59!var#2" state="0" edges="C4D4 D4C4 C4B4 B4A4 A4A3 A3A4 A4B4"/>
    <route id="!60!var#1" state="0" edges="D3D2 D2D3 D3C3 C3C2"/>
    <route id="!61!var#1" state="0" edges="D3D4 D4D3 D3C3 C3B3"/>
    <route id="!62!var#1" state="0" edges="A0A1 A1B1 B1B2 B2B3 B3B2"/>
    <route id="!63!var#1" state="0" edges="A0B0 B0C0 C0C1 C1D1 D1E1 E1E2 E2E3"/>
    <route id="!64" state="0" edges="E1E0 E0D0 D0D1 D1D2 D2D3 D3D4 D4E4"/>
    <route id="!65" state="0" edges="B3A3 A3A2 A2A1 A1B1"/>
    <route id="!66!var#2" state="0" edges="E1E0 E0D0 D0D1 D1D2 D2D3 D3E3 E3D3"/>
    <route id="!67!var#2" state="0" edges="A2A3 A3B3 B3B2 B2C2 C2B2"/>
    <route id="!68!var#1" state="0" edges="A2A1 A1B1 B1C1 C1D1 D1D2 D2D3 D3C3"/>
    <route id="!69!var#1" state="0" edges="D3D2 D2C2 C2B2 B2B3 B3A3 A3B3"/>
    <route id="!7" state="0" edges="D0E0 E0E1 E1D1 D1C1 C1C2 C2C3 C3C2"/>
    <route id="!70" state="0" edges="C2B2 B2B3 B3C3 C3C2"/>
    <route id="!71" state="0" edges="B2B1 B1C1 C1D1 D1E1 E1D1"/>
    <route id="!72" state="0" edges="C0D0 D0C0 C0B0 B0B1 B1A1"/>
    <route id="!73" state="0" edges="C3C2 C2D2 D2D3"/>
    <route id="!74!var#2" state="0" edges="B1A1 A1A2 A2B2 B2B3 B3A3"/>
    <route id="!75!var#2" state="0" edges="E4E3 E3E2 E2E1 E1D1 D1D0 D0E0"/>
    <route id="!76" state="0" edges="C1C0 C0C1 C1C2 C2D2"/>
    <route id="!77" state="0" edges="A3A4 A4B4 B4B3 B3B2 B2B1 B1B0"/>
    <route id="!78" state="0" edges="B3C3 C3C4 C4C3"/>
    <route id="!79" state="0" edges="B1B2 B2B1 B1B0"/>
    <route id="!8" state="0" edges="B1B0 B0B1 B1B2 B2B3 B3B4 B4C4 C4C3"/>
    <route id="!80!var#1" state="0" edges="A2A1 A1B1 B1C1 C1D1 D1D0 D0D1"/>
    <route id="!81" state="0" edges="B1B2 B2C2 C2D2 D2E2 E2D2"/>
    <route id="!82!var#2" state="0" edges="E0E1 E1D1 D1C1 C1C2 C2B2 B2A2 A2A1"/>
    <route id="!83" state="0" edges="B1C1 C1D1 D1D0"/>
    <route id="!84" state="0" edges="B1B0 B0A0 A0A1 A1A2 A2A3 A3B3"/>
    <route id="!85" state="0" edges="E2E3 E3D3 D3C3 C3D3"/>
    <route id="!86" state="0" edges="C1D1 D1D2 D2D3 D3D4"/>
    <route id="!87!var#2" state="0" edges="D4C4 C4C3 C3C2 C2C1 C1B1 B1B0 B0C0"/>
    <route id="!88!var#1" state="0" edges="A2B2 B2C2 C2C1 C1B1"/>
    <route id="!89!var#1" state="0" edges="C0D0 D0D1 D1C1 C1D1"/>
    <route id="!9" state="0" edges="D4C4 C4B4 B4B3 B3B2 B2B1 B1B0 B0A0 A0A1"/>
    <route id="!90" state="0" edges="D2D3 D3D2 D2D1 D1D0"/>
    <route id="!91" state="0" edges="E4D4 D4C4 C4B4 B4A4 A4A3 A3A2 A2B2"/>
    <route id="!92!var#1" state="0" edges="C0C1 C1C2 C2B2 B2B3 B3C3"/>
    <route id="!93" state="0" edges="E0E1 E1D1 D1C1 C1B1 B1C1"/>
    <route id="!94" state="0" edges="B0C0 C0C1 C1C0"/>
    <route id="!95!var#1" state="0" edges="C0D0 D0D1 D1C1 C1C2 C2B2 B2B3"/>
    <route id="!96!var#1" state="0" edges="B1C1 C1D1 D1E1 E1E2 E2E1"/>
    <route id="!97" state="0" edges="C1C0 C0D0 D0E0 E0E1"/>
    <route id="!98!var#1" state="0" edges="C3C4 C4C3 C3C2 C2B2 B2A2 A2A1 A1B1"/>
    <route id="!99" state="0" edges="E4E3 E3D3 D3D4 D4E4"/>
    <delay number="75" begin="200" end="25" depart="0.00" time="1452.00"/>
    <vType id="DEFAULT_VEHTYPE"/>
    <vehicle id="7" depart="7.00" route="!7" distance="1000 0" speedFactor="0.8860" state="0 7000 5 0 1 0 104512 96386 9223372036854774807">
        <device id="vehroute_7" state="12.31 0.00 0"/>
        <device id="routing_7" state="10000 97000"/>
    </vehicle>
    <vehicle id="8" depart="8.00" route="!8" distance="1000 0" speedFactor="0.9379" state="0 8000 5 0 1 0 104709 97033 9223372036854774807">
        <device id="vehroute_8" state="13.03 0.00 0"/>
        <device id="routing_8" state="10000 98000"/>
    </vehicle>
    <vehicle id="9" depart="9.00" route="!9" distance="1000 0" speedFactor="0.8569" state="0 9000 5 0 0 0 101422 93020 9223372036854774807">
        <device id="vehroute_9" state="11.90 0.00 0"/>
        <device id="routing_9" state="10000 99000"/>
    </vehicle>
    <vehicle id="14" depart="14.00" route="!14" distance="1000 0" speedFactor="0.9912" state="0 14000 5 0 1 0 101156 93893 9223372036854774807">
        <device id="vehroute_14" state="13.77 0.00 0"/>
        <device id="routing_14" state="10000 94000"/>
    </vehicle>
    <vehicle id="18" depart="18.00" route="!18" distance="1000 0" speedFactor="0.9362" state="0 18000 5 0 0 0 102590 94900 9223372036854774807">
        <device id="vehroute_18" state="13.00 0.00 0"/>
        <device id="routing_18" state="10000 98000"/>
    </vehicle>
    <vehicle id="19" depart="19.00" route="!19!var#2" distance="1200 2" speedFactor="1.1582" state="0 19000 6 0 0 0 99808 93592 9223372036854774807">
        <device id="vehroute_19" state="16.09 0.00 2 !NULL 19000 !19 device.rerouting -1 0 E0E1 29000 !19!var#1 device.rerouting 0 0"/>
        <device id="routing_19" state="10000 99000"/>
    </vehicle>
    <vehicle id="22" depart="22.00" route="!22!var#1" distance="800 1" speedFactor="0.9750" state="0 22000 4 0 1 0 99741 91022 9223372036854774807">
        <device id="vehroute_22" state="13.54 0.00 1 A2A3 32000 !22 device.rerouting 0 0"/>
        <device id="routing_22" state="10000 92000"/>
    </vehicle>
    <vehicle id="24" depart="24.00" route="!24" distance="800 0" speedFactor="0.8257" state="0 24000 4 0 0 0 103453 94734 9223372036854774807">
        <device id="vehroute_24" state="11.47 0.00 0"/>
        <device id="routing_24" state="10000 94000"/>
    </vehicle>
    <vehicle id="26" depart="26.00" route="!26" distance="800 0" speedFactor="0.9172" state="0 26000 4 0 0 0 101197 93348 9223372036854774807">
        <device id="vehroute_26" state="12.74 0.00 0"/>
        <device id="routing_26" state="10000 96000"/>
    </vehicle>
    <vehicle id="27" depart="27.00" route="!27!var#2" distance="800 6" speedFactor="0.9488" state="0 27000 4 0 1 0 102880 95292 9223372036854774807">
        <device id="vehroute_27" state="13.18 0.00 6 E0E1 47000 !27 device.rerouting 1 1 E0E1 57000 !27!var#1 device.rerouting 1 1 E1D1 67000 !27!var#2 device.rerouting 2 2 D1D2 77000 !27!var#1 device.rerouting 3 3 D1D2 87000 !27!var#2 device.rerouting 3 3 D2D3 97000 !27!var#1 device.rerouting 4 4"/>
        <device id="routing_27" state="10000 97000"/>
    </vehicle>
    <vehicle id="28" depart="28.00" route="!28!var#2" distance="1000 2" speedFactor="1.1318" state="0 28000 5 0 0 0 101072 94711 9223372036854774807">
        <device id="vehroute_28" state="15.72 0.00 2 B0A0 38000 !28 device.rerouting 0 0 A0A1 48000 !28!var#1 device.rerouting 1 1"/>
        <device id="routing_28" state="10000 98000"/>
    </vehicle>
    <vehicle id="29" depart="29.00" route="!29" distance="800 0" speedFactor="0.9313" state="0 29000 4 0 1 0 106310 98579 9223372036854774807">
        <device id="vehroute_29" state="12.93 0.00 0"/>
        <device id="routing_29" state="10000 99000"/>
    </vehicle>
    <vehicle id="30" depart="30.00" route="!30!var#1" distance="1000 3" speedFactor="1.1786" state="0 30000 5 0 1 0 103296 97188 9223372036854774807">
        <device id="vehroute_30" state="16.37 0.00 3 !NULL 30000 !30 device.rerouting -1 0 E4E3 40000 !30!var#1 device.rerouting 0 0 E3E2 50000 !30!var#2 device.rerouting 1 1"/>
        <device id="routing_30" state="10000 90000"/>
    </vehicle>
    <vehicle id="31" depart="31.00" route="!31!var#2" distance="1000 2" speedFactor="1.1544" state="0 31000 5 0 0 0 102806 96569 9223372036854774807">
        <device id="vehroute_31" state="16.03 0.00 2 !NULL 31000 !31 device.rerouting -1 0 C3C4 41000 !31!var#1 device.rerouting 0 0"/>
        <device id="routing_31" state="10000 91000"/>
    </vehicle>
    <vehicle id="32" depart="32.00" route="!32" distance="800 0" speedFactor="1.0052" state="0 32000 4 0 1 0 103620 96458 9223372036854774807">
        <device id="vehroute_32" state="13.96 0.00 0"/>
        <device id="routing_32" state="10000 92000"/>
    </vehicle>
    <vehicle id="35" depart="35.00" route="!35!var#2" distance="800 4" speedFactor="1.0197" state="0 35000 4 0 1 0 105600 98540 9223372036854774807">
        <device id="vehroute_35" state="14.16 0.00 4 !NULL 35000 !35 device.rerouting -1 0 B1A1 45000 !35!var#1 device.rerouting 0 0 A1B1 55000 !35!var#2 device.rerouting 1 1 B1C1 75000 !35!var#1 device.rerouting 2 2"/>
        <device id="routing_35" state="10000 95000"/>
    </vehicle>
    <vehicle id="36" depart="36.00" route="!36!var#1" distance="800 5" speedFactor="0.9732" state="0 36000 4 0 0 0 102582 95184 9223372036854774807">
        <device id="vehroute_36" state="13.52 0.00 5 !NULL 36000 !36 device.rerouting -1 0 E0D0 56000 !36!var#1 device.rerouting 1 1 E0D0 66000 !36!var#2 device.rerouting 1 1 D0D1 76000 !36!var#1 device.rerouting 2 2 D1D2 86000 !36!var#2 device.rerouting 3 3"/>
        <device id="routing_36" state="10000 96000"/>
    </vehicle>
    <vehicle id="40" depart="40.00" route="!40!var#1" distance="800 1" speedFactor="1.0304" state="0 40000 4 0 0 0 102883 95896 9223372036854774807">
        <device id="vehroute_40" state="14.31 0.00 1 !NULL 40000 !40 device.rerouting -1 0"/>
        <device id="routing_40" state="10000 90000"/>
    </vehicle>
    <vehicle id="41" depart="41.00" route="!41!var#1" distance="600 3" speedFactor="0.9571" state="0 41000 3 0 1 0 101176 93654 9223372036854774807">
        <device id="vehroute_41" state="13.29 0.00 3 !NULL 41000 !41 device.rerouting -1 0 C4B4 51000 !41!var#1 device.rerouting 0 0 B4C4 71000 !41!var#2 device.rerouting 1 1"/>
        <device id="routing_41" state="10000 91000"/>
    </vehicle>
    <vehicle id="43" depart="43.00" route="!43!var#1" distance="600 1" speedFactor="1.0378" state="0 43000 3 0 1 0 99129 92085 9223372036854774807">
        <device id="vehroute_43" state="14.42 0.00 1 !NULL 43000 !43 device.rerouting -1 0"/>
        <device id="routing_43" state="10000 93000"/>
    </vehicle>
    <vehicle id="44" depart="44.00" route="!44" distance="600 0" speedFactor="1.0434" state="0 44000 3 0 1 0 99268 92368 9223372036854774807">
        <device id="vehroute_44" state="14.49 0.00 0"/>
        <device id="routing_44" state="10000 94000"/>
    </vehicle>
    <vehicle id="45" depart="45.00" route="!45!var#2" distance="600 4" speedFactor="1.0880" state="0 45000 3 0 1 0 102269 94869 9223372036854774807">
        <device id="vehroute_45" state="15.11 0.00 4 A3A2 55000 !45 device.rerouting 0 0 A2B2 65000 !45!var#1 device.rerouting 1 1 B2B1 75000 !45!var#2 device.rerouting 2 2 B2B1 85000 !45!var#1 device.rerouting 2 2"/>
        <device id="routing_45" state="10000 95000"/>
    </vehicle>
    <vehicle id="46" depart="46.00" route="!46!var#1" distance="600 1" speedFactor="0.9974" state="0 46000 3 0 1 0 103744 96526 9223372036854774807">
        <device id="vehroute_46" state="13.85 0.00 1 D3E3 56000 !46 device.rerouting 0 0"/>
        <device id="routing_46" state="10000 96000"/>
    </vehicle>
    <vehicle id="47" depart="47.00" route="!47" distance="600 0" speedFactor="0.9005" state="0 47000 3 0 0 0 102965 94970 9223372036854774807">
        <device id="vehroute_47" state="12.51 0.00 0"/>
        <device id="routing_47" state="10000 97000"/>
    </vehicle>
    <vehicle id="48" depart="48.00" route="!48" distance="600 0" speedFactor="0.8769" state="0 48000 3 0 0 0 105470 97260 9223372036854774807">
        <device id="vehroute_48" state="12.18 0.00 0"/>
        <device id="routing_48" state="10000 98000"/>
    </vehicle>
    <vehicle id="49" depart="49.00" route="!49" distance="400 0" speedFactor="0.8504" state="0 49000 2 0 1 0 99796 91330 9223372036854774807">
        <device id="vehroute_49" state="11.81 0.00 0"/>
        <device id="routing_49" state="10000 99000"/>
    </vehicle>
    <vehicle id="50" depart="50.00" route="!50" distance="400 0" speedFactor="0.8549" state="0 50000 2 0 1 0 100526 92105 9223372036854774807">
        <device id="vehroute_50" state="11.87 0.00 0"/>
        <device id="routing_50" state="10000 90000"/>
    </vehicle>
    <vehicle id="51" depart="51.00" route="!51" distance="600 0" speedFactor="1.1689" state="0 51000 3 0 0 0 99468 93309 9223372036854774807">
        <device id="vehroute_51" state="16.24 0.00 0"/>
        <device id="routing_51" state="10000 91000"/>
    </vehicle>
    <vehicle id="52" depart="52.00" route="!52!var#1" distance="600 1" speedFactor="1.0168" state="0 52000 3 0 0 0 101560 94480 9223372036854774807">
        <device id="vehroute_52" state="14.12 0.00 1 !NULL 52000 !52 device.rerouting -1 0"/>
        <device id="routing_52" state="10000 92000"/>
    </vehicle>
    <vehicle id="53" depart="53.00" route="!53!var#2" distance="600 2" speedFactor="1.0958" state="0 53000 3 0 1 0 105560 98990 9223372036854774807">
        <device id="vehroute_53" state="15.22 0.00 2 !NULL 53000 !53 device.rerouting -1 0 A3A2 63000 !53!var#1 device.rerouting 0 0"/>
        <device id="routing_53" state="10000 93000"/>
    </vehicle>
    <vehicle id="54" depart="54.00" route="!54!var#1" distance="600 1" speedFactor="1.0032" state="0 54000 3 0 0 0 104232 97056 9223372036854774807">
        <device id="vehroute_54" state="13.93 0.00 1 C1C2 64000 !54 device.rerouting 0 0"/>
        <device id="routing_54" state="10000 94000"/>
    </vehicle>
    <vehicle id="55" depart="55.00" route="!55!var#2" distance="600 4" speedFactor="0.9960" state="0 55000 3 0 0 0 105596 98368 9223372036854774807">
        <device id="vehroute_55" state="13.83 0.00 4 !NULL 55000 !55 device.rerouting -1 0 E1E0 65000 !55!var#1 device.rerouting 0 0 E0D0 75000 !55!var#2 device.rerouting 1 1 D0C0 85000 !55!var#1 device.rerouting 2 2"/>
        <device id="routing_55" state="10000 95000"/>
    </vehicle>
    <vehicle id="56" depart="56.00" route="!56" distance="400 0" speedFactor="0.8989" state="0 56000 2 0 1 0 104054 96045 9223372036854774807">
        <device id="vehroute_56" state="12.49 0.00 0"/>
        <device id="routing_56" state="10000 96000"/>
    </vehicle>
    <vehicle id="58" depart="58.00" route="!58!var#1" distance="400 1" speedFactor="1.0236" state="0 58000 2 0 1 0 104113 97080 9223372036854774807">
        <device id="vehroute_58" state="10.73 0.00 1 C2C1 78000 !58 device.rerouting 1 1"/>
        <device id="routing_58" state="10000 98000"/>
    </vehicle>
    <vehicle id="59" depart="59.00" route="!59!var#2" distance="400 2" speedFactor="0.9695" state="0 59000 2 0 1 0 103556 96130 9223372036854774807">
        <device id="vehroute_59" state="13.47 0.00 2 !NULL 59000 !59 device.rerouting -1 0 C4D4 69000 !59!var#1 device.rerouting 0 0"/>
        <device id="routing_59" state="10000 99000"/>
    </vehicle>
    <vehicle id="60" depart="60.00" route="!60!var#1" distance="400 1" speedFactor="1.0825" state="0 60000 2 0 1 0 99906 93255 9223372036854774807">
        <device id="vehroute_60" state="15.04 0.00 1 D3D2 70000 !60 device.rerouting 0 0"/>
        <device id="routing_60" state="10000 90000"/>
    </vehicle>
    <vehicle id="61" depart="61.00" route="!61!var#1" distance="400 1" speedFactor="1.1193" state="0 61000 2 0 1 0 101575 94924 9223372036854774807">
        <device id="vehroute_61" state="15.55 0.00 1 !NULL 61000 !61 device.rerouting -1 0"/>
        <device id="routing_61" state="10000 91000"/>
    </vehicle>
    <vehicle id="62" depart="62.00" route="!62!var#1" distance="400 1" speedFactor="1.0158" state="0 62000 2 0 1 0 104522 97435 9223372036854774807">
        <device id="vehroute_62" state="14.11 0.00 1 A0A1 72000 !62 device.rerouting 0 0"/>
        <device id="routing_62" state="10000 92000"/>
    </vehicle>
    <vehicle id="63" depart="63.00" route="!63!var#1" distance="400 3" speedFactor="0.9870" state="0 63000 2 0 0 0 102306 92176 9223372036854774807">
        <device id="vehroute_63" state="13.71 0.00 3 !NULL 63000 !63 device.rerouting -1 0 A0B0 73000 !63!var#1 device.rerouting 0 0 B0C0 83000 !63!var#2 device.rerouting 1 1"/>
        <device id="routing_63" state="10000 93000"/>
    </vehicle>
    <vehicle id="64" depart="64.00" route="!64" distance="400 0" speedFactor="0.9376" state="0 64000 2 0 0 0 102395 94716 9223372036854774807">
        <device id="vehroute_64" state="13.02 0.00 0"/>
        <device id="routing_64" state="10000 94000"/>
    </vehicle>
    <vehicle id="65" depart="65.00" route="!65" distance="400 0" speedFactor="0.8823" state="0 65000 2 0 0 0 105800 97640 9223372036854774807">
        <device id="vehroute_65" state="12.25 0.00 0"/>
        <device id="routing_65" state="10000 95000"/>
    </vehicle>
    <vehicle id="66" depart="66.00" route="!66!var#2" distance="400 2" speedFactor="0.9068" state="0 66000 2 0 0 0 105695 97756 9223372036854774807">
        <device id="vehroute_66" state="12.60 0.00 2 E1E0 76000 !66 device.rerouting 0 0 E0D0 86000 !66!var#1 device.rerouting 1 1"/>
        <device id="routing_66" state="10000 96000"/>
    </vehicle>
    <vehicle id="67" depart="67.00" route="!67!var#2" distance="400 2" speedFactor="0.9146" state="0 67000 2 0 0 0 106360 98488 9223372036854774807">
        <device id="vehroute_67" state="12.70 0.00 2 !NULL 67000 !67 device.rerouting -1 0 A3B3 87000 !67!var#1 device.rerouting 1 1"/>
        <device id="routing_67" state="10000 97000"/>
    </vehicle>
    <vehicle id="68" depart="68.00" route="!68!var#1" distance="400 1" speedFactor="1.0400" state="0 68000 2 0 0 0 102615 95692 9223372036854774807">
        <device id="vehroute_68" state="14.44 0.00 1 !NULL 68000 !68 device.rerouting -1 0"/>
        <device id="routing_68" state="10000 98000"/>
    </vehicle>
    <vehicle id="69" depart="69.00" route="!69!var#1" distance="400 1" speedFactor="1.0221" state="0 69000 2 0 0 0 104504 97460 9223372036854774807">
        <device id="vehroute_69" state="13.65 0.00 1 D2C2 89000 !69 device.rerouting 1 1"/>
        <device id="routing_69" state="10000 99000"/>
    </vehicle>
    <vehicle id="70" depart="70.00" route="!70" distance="400 0" speedFactor="1.0230" state="0 70000 2 0 0 0 105190 98152 9223372036854774807">
        <device id="vehroute_70" state="14.21 0.00 0"/>
        <device id="routing_70" state="10000 90000"/>
    </vehicle>
    <vehicle id="71" depart="71.00" route="!71" distance="200 0" speedFactor="0.9729" state="0 71000 1 0 1 0 100600 93200 9223372036854774807">
        <device id="vehroute_71" state="13.51 0.00 0"/>
        <device id="routing_71" state="10000 91000"/>
    </vehicle>
    <vehicle id="72" depart="72.00" route="!72" distance="200 0" speedFactor="0.9401" state="0 72000 1 0 1 0 102632 94974 9223372036854774807">
        <device id="vehroute_72" state="13.06 0.00 0"/>
        <device id="routing_72" state="10000 92000"/>
    </vehicle>
    <vehicle id="73" depart="73.00" route="!73" distance="200 0" speedFactor="1.0557" state="0 73000 1 0 1 0 100280 93460 9223372036854774807">
        <device id="vehroute_73" state="14.66 0.00 0"/>
        <device id="routing_73" state="10000 93000"/>
    </vehicle>
    <vehicle id="74" depart="74.00" route="!74!var#2" distance="200 2" speedFactor="0.9551" state="0 74000 1 0 1 0 104152 96614 9223372036854774807">
        <device id="vehroute_74" state="13.27 0.00 2 !NULL 74000 !74 device.rerouting -1 0 B1A1 84000 !74!var#1 device.rerouting 0 0"/>
        <device id="routing_74" state="10000 94000"/>
    </vehicle>
    <vehicle id="75" depart="75.00" route="!75!var#2" distance="200 2" speedFactor="0.9849" state="0 75000 1 0 1 0 104240 96930 9223372036854774807">
        <device id="vehroute_75" state="13.68 0.00 2 !NULL 75000 !75 device.rerouting -1 0 E3E2 95000 !75!var#1 device.rerouting 1 1"/>
        <device id="routing_75" state="10000 95000"/>
    </vehicle>
    <vehicle id="76" depart="76.00" route="!76" distance="200 0" speedFactor="1.0325" state="0 76000 1 0 1 0 103892 96919 9223372036854774807">
        <device id="vehroute_76" state="14.34 0.00 0"/>
        <device id="routing_76" state="10000 96000"/>
    </vehicle>