<?xml version="1.0" encoding="UTF-8"?>

<!-- generated on 2025-09-16T09:57:52.495714+01:00 by Eclipse SUMO sumo v1_24_0+0811-c889b5d66f5
<sumoConfiguration xmlns:xsi="http://www.w3.org/2001/XMLSchema-instance" xsi:noNamespaceSchemaLocation="http://sumo.dlr.de/xsd/sumoConfiguration.xsd">

    <input>
        <net-file value="input_net.net.xml"/>
        <route-files value="input_routes.rou.xml"/>
        <load-state value="state.xml"/>
    </input>

    <output>
        <vehroute-output value="vehroutes2.xml"/>
    </output>

    <routing>
        <device.rerouting.probability value="1.0"/>
        <device.rerouting.period value="10"/>
        <device.rerouting.adaptation-steps value="10"/>
    </routing>

    <report>
        <duration-log.disable value="true"/>
        <no-step-log value="true"/>
    </report>

</sumoConfiguration>
-->

<routes xmlns:xsi="http://www.w3.org/2001/XMLSchema-instance" xsi:noNamespaceSchemaLocation="http://sumo.dlr.de/xsd/routes_file.xsd">
    <vehicle id="4" depart="4.00" arrival="101.00">
        <route edges="C0D0 D0C0 C0C1 C1B1 B1A1 A1A0"/>
    </vehicle>

    <vehicle id="38" depart="38.00" arrival="101.00">
        <route edges="E2E1 E1D1 D1C1 C1C2"/>
    </vehicle>

    <vehicle id="3" depart="3.00" arrival="102.00">
        <route edges="E1E2 E2D2 D2C2 C2B2 B2A2 A2A3"/>
    </vehicle>

    <vehicle id="5" depart="5.00" arrival="105.00">
        <route edges="B1B0 B0B1 B1C1 C1C2 C2C3"/>
    </vehicle>

    <vehicle id="20" depart="20.00" arrival="108.00">
        <route edges="D2C2 C2B2 B2A2 A2A1 A1A2"/>
    </vehicle>

    <vehicle id="12" depart="12.00" arrival="109.00">
        <routeDistribution>
            <route replacedOnEdge="E3E2" reason="device.rerouting" replacedAtTime="22.00" probability="0" edges="E3E2 E2D2 D2D3 D3C3 C3B3 B3B4"/>
            <route edges="E3E2 E2D2 D2D3 D3C3 C3B3 B3B4"/>
        </routeDistribution>
    </vehicle>

    <vehicle id="32" depart="32.00" arrival="110.00">
        <route edges="E0D0 D0D1 D1D2 D2D3 D3D4"/>
    </vehicle>

    <vehicle id="0" depart="0.00" arrival="116.00">
        <route edges="D0E0 E0E1 E1D1 D1C1 C1B1 B1A1 A1A0"/>
    </vehicle>

    <vehicle id="44" depart="44.00" arrival="119.00">
        <route edges="A2B2 B2B1 B1A1 A1A2"/>
    </vehicle>

    <vehicle id="40" depart="40.00" arrival="120.00">
        <route edges="C3C4 C4C3 C3B3 B3B2 B2B1"/>
    </vehicle>

    <vehicle id="16" depart="16.00" arrival="122.00">
        <route edges="C3B3 B3C3 C3D3 D3E3 E3E4"/>
    </vehicle>

    <vehicle id="30" depart="30.00" arrival="124.00">
        <routeDistribution>
            <route replacedOnEdge="E4E3" reason="device.rerouting" replacedAtTime="40.00" probability="0" edges="E4E3 E3D3 D3D2 D2D1 D1D0 D0E0"/>
            <route replacedOnEdge="D3D2" replacedOnIndex="2" reason="device.rerouting" replacedAtTime="70.00" probability="0" edges="E4E3 E3D3 D3D2 D2D1 D1D0 D0E0"/>
            <route edges="E4E3 E3D3 D3D2 D2D1 D1D0 D0E0"/>
        </routeDistribution>
    </vehicle>

    <vehicle id="19" depart="19.00" arrival="125.00">
        <routeDistribution>
            <route replacedOnEdge="E0E1" reason="device.rerouting" replacedAtTime="29.00" probability="0" edges="E0E1 E1D1 D1D2 D2D3 D3D4 D4C4 C4B4"/>
            <route replacedOnEdge="D2D3" replacedOnIndex="3" reason="device.rerouting" replacedAtTime="69.00" probability="0" edges="E0E1 E1D1 D1D2 D2D3 D3D4 D4C4 C4B4"/>
            <route edges="E0E1 E1D1 D1D2 D2D3 D3D4 D4C4 C4B4"/>
        </routeDistribution>
    </vehicle>

    <vehicle id="22" depart="22.00" arrival="126.00">
        <route edges="A2A3 A3A2 A2A1 A1B1 B1B2"/>
    </vehicle>

    <vehicle id="79" depart="82.00" arrival="128.00">
        <route edges="B1B2 B2B1 B1B0"/>
    </vehicle>

    <vehicle id="8" depart="8.00" arrival="129.00">
        <routeDistribution>
            <route replacedOnEdge="B1B0" reason="device.rerouting" replacedAtTime="28.00" probability="0" edges="B1B0 B0B1 B1B2 B2B3 B3B4 B4C4 C4C3"/>
            <route edges="B1B0 B0B1 B1B2 B2B3 B3B4 B4C4 C4C3"/>
        </routeDistribution>
    </vehicle>

    <vehicle id="14" depart="14.00" arrival="129.00">
        <routeDistribution>
            <route replacedOnEdge="D0D1" replacedOnIndex="1" reason="device.rerouting" replacedAtTime="34.00" probability="0" edges="E0D0 D0D1 D1D2 D2D3 D3C3 C3C4 C4D4"/>
            <route edges="E0D0 D0D1 D1D2 D2D3 D3C3 C3C4 C4D4"/>
        </routeDistribution>
    </vehicle>

    <vehicle id="61" depart="64.00" arrival="129.00">
        <route edges="D3D4 D4C4 C4C3 C3B3"/>
    </vehicle>

    <vehicle id="73" depart="79.00" arrival="129.00">
        <route edges="C3C2 C2D2 D2D3"/>
    </vehicle>

    <vehicle id="48" depart="48.00" arrival="131.00">
        <route edges="E4E3 E3D3 D3C3 C3B3"/>
    </vehicle>

    <vehicle id="15" depart="15.00" arrival="134.00">
        <route edges="D4C4 C4D4 D4D3 D3D2 D2D3"/>
    </vehicle>

    <vehicle id="53" depart="53.00" arrival="135.00">
        <route edges="A3A2 A2B2 B2B1 B1C1 C1B1"/>
    </vehicle>

    <vehicle id="70" depart="70.00" arrival="135.00">
        <route edges="C2B2 B2B3 B3C3 C3C2"/>
    </vehicle>

    <vehicle id="26" depart="26.00" arrival="137.00">
        <routeDistribution>
            <route replacedOnEdge="B1C1" replacedOnIndex="1" reason="device.rerouting" replacedAtTime="66.00" probability="0" edges="B2B1 B1C1 C1D1 D1D2 D2E2 E2E3"/>
            <route edges="B2B1 B1C1 C1D1 D1D2 D2E2 E2E3"/>
        </routeDistribution>
    </vehicle>

    <vehicle id="65" depart="65.00" arrival="139.00">
        <route edges="B3A3 A3A2 A2A1 A1B1"/>
    </vehicle>

    <vehicle id="54" depart="56.00" arrival="142.00">
        <route edges="C1C2 C2D2 D2D3 D3E3 E3E2"/>
    </vehicle>

    <vehicle id="76" depart="77.00" arrival="143.00">
        <route edges="C1C0 C0C1 C1C2 C2D2"/>
    </vehicle>

    <vehicle id="94" depart="94.00" arrival="143.00">
        <route edges="B0C0 C0C1 C1C0"/>
    </vehicle>

    <vehicle id="10" depart="12.00" arrival="144.00">
        <route edges="D4C4 C4C3 C3C2 C2C1 C1D1 D1E1"/>
    </vehicle>

    <vehicle id="78" depart="81.00" arrival="148.00">
        <route edges="B3C3 C3C4 C4C3"/>
    </vehicle>

    <vehicle id="127" depart="127.00" arrival="148.00">
        <route edges="E4E3"/>
    </vehicle>

    <vehicle id="130" depart="130.00" arrival="148.00">
        <route edges="E1E0"/>
    </vehicle>

    <vehicle id="28" depart="30.00" arrival="150.00">
        <route edges="B0A0 A0A1 A1B1 B1B2 B2C2 C2D2 D2D3"/>
    </vehicle>

    <vehicle id="43" depart="43.00" arrival="150.00">
        <routeDistribution>
            <route replacedOnEdge="E3D3" replacedOnIndex="1" reason="device.rerouting" replacedAtTime="73.00" probability="0" edges="E4E3 E3D3 D3D2 D2C2 C2C3"/>
            <route edges="E4E3 E3D3 D3D2 D2C2 C2C3"/>
        </routeDistribution>
    </vehicle>

    <vehicle id="29" depart="33.00" arrival="151.00">
        <routeDistribution>
            <route replacedOnEdge="A1A2" replacedOnIndex="2" reason="device.rerouting" replacedAtTime="73.00" probability="0" edges="B0A0 A0A1 A1A2 A2A3 A3A4 A4B4 B4C4"/>
            <route edges="B0A0 A0A1 A1A2 A2A3 A3A4 A4B4 B4C4"/>
        </routeDistribution>
    </vehicle>

    <vehicle id="31" depart="31.00" arrival="155.00">
        <routeDistribution>
            <route replacedOnEdge="C4D4" replacedOnIndex="1" reason="device.rerouting" replacedAtTime="61.00" probability="0" edges="C3C4 C4D4 D4D3 D3E3 E3E2 E2E1 E1D1 D1D2"/>
            <route edges="C3C4 C4D4 D4D3 D3E3 E3E2 E2E1 E1D1 D1D2"/>
        </routeDistribution>
    </vehicle>

    <vehicle id="52" depart="74.00" arrival="156.00">
        <route edges="B2B1 B1B0 B0C0 C0D0 D0E0"/>
    </vehicle>

    <vehicle id="60" depart="66.00" arrival="159.00">
        <route edges="D3D2 D2D3 D3C3 C3C2"/>
    </vehicle>

    <vehicle id="47" depart="47.00" arrival="160.00">
        <route edges="A2A1 A1A2 A2B2 B2B3 B3B4 B4C4"/>
    </vehicle>

    <vehicle id="58" depart="73.00" arrival="160.00">
        <route edges="B2C2 C2D2 D2D1 D1D0 D0E0"/>
    </vehicle>

    <vehicle id="102" depart="109.00" arrival="160.00">
        <route edges="C2B2 B2B1 B1B0"/>
    </vehicle>

    <vehicle id="74" depart="76.00" arrival="161.00">
        <routeDistribution>
            <route replacedOnEdge="B1A1" reason="device.rerouting" replacedAtTime="86.00" probability="0" edges="B1A1 A1A2 A2A3 A3B3 B3A3"/>
            <route replacedOnEdge="A1A2" replacedOnIndex="1" reason="device.rerouting" replacedAtTime="106.00" probability="0" edges="B1A1 A1A2 A2A3 A3B3 B3A3"/>
            <route edges="B1A1 A1A2 A2B2 B2B3 B3A3"/>
        </routeDistribution>
    </vehicle>

    <vehicle id="67" depart="67.00" arrival="163.00">
        <routeDistribution>
            <route replacedOnEdge="A3B3" replacedOnIndex="1" reason="device.rerouting" replacedAtTime="87.00" probability="0" edges="A2A3 A3B3 B3C3 C3C2 C2B2"/>
            <route edges="A2A3 A3B3 B3C3 C3C2 C2B2"/>
        </routeDistribution>
    </vehicle>

    <vehicle id="72" depart="72.00" arrival="163.00">
        <route edges="C0D0 D0C0 C0B0 B0B1 B1A1"/>
    </vehicle>

    <vehicle id="99" depart="99.00" arrival="164.00">
        <routeDistribution>
            <route replacedOnEdge="E4E3" reason="device.rerouting" replacedAtTime="109.00" probability="0" edges="E4E3 E3D3 D3D4 D4E4"/>
            <route edges="E4E3 E3E4 E4D4 D4E4"/>
        </routeDistribution>
    </vehicle>

    <vehicle id="56" depart="56.00" arrival="165.00">
        <routeDistribution>
            <route replacedOnEdge="C2C3" reason="device.rerouting" replacedAtTime="76.00" probability="0" edges="C2C3 C3C2 C2B2 B2B1 B1B0 B0B1"/>
            <route edges="C2C3 C3C2 C2B2 B2B1 B1B0 B0B1"/>
        </routeDistribution>
    </vehicle>

    <vehicle id="62" depart="62.00" arrival="165.00">
        <route edges="A0A1 A1B1 B1B2 B2B3 B3B2"/>
    </vehicle>

    <vehicle id="7" depart="7.00" arrival="166.00">
        <route edges="D0E0 E0E1 E1E2 E2E3 E3D3 D3C3 C3C2"/>
    </vehicle>

    <vehicle id="85" depart="85.00" arrival="167.00">
        <route edges="E2E3 E3D3 D3C3 C3D3"/>
    </vehicle>

    <vehicle id="97" depart="97.00" arrival="167.00">
        <route edges="C1C0 C0D0 D0E0 E0E1"/>
    </vehicle>

    <vehicle id="27" depart="27.00" arrival="168.00">
        <routeDistribution>
            <route replacedOnEdge="E1E2" replacedOnIndex="2" reason="device.rerouting" replacedAtTime="67.00" probability="0" edges="D0E0 E0E1 E1E2 E2D2 D2D3 D3D4 D4C4 C4D4"/>
            <route edges="D0E0 E0E1 E1E2 E2D2 D2D3 D3D4 D4C4 C4D4"/>
        </routeDistribution>
    </vehicle>

    <vehicle id="101" depart="101.00" arrival="168.00">
        <route edges="E0D0 D0C0 C0B0 B0A0"/>
    </vehicle>

    <vehicle id="84" depart="84.00" arrival="169.00">
        <route edges="B1B0 B0A0 A0A1 A1A2 A2A3 A3B3"/>
    </vehicle>

    <vehicle id="51" depart="70.00" arrival="170.00">
        <route edges="D1D2 D2D3 D3C3 C3B3"/>
    </vehicle>

    <vehicle id="24" depart="24.00" arrival="172.00">
        <routeDistribution>
            <route replacedOnEdge="D0D1" reason="device.rerouting" replacedAtTime="44.00" probability="0" edges="D0D1 D1D2 D2C2 C2C3 C3B3 B3B4 B4B3"/>
            <route edges="D0D1 D1D2 D2C2 C2C3 C3B3 B3B4 B4B3"/>
        </routeDistribution>
    </vehicle>

    <vehicle id="75" depart="75.00" arrival="172.00">
        <routeDistribution>
            <route replacedOnEdge="E2E1" replacedOnIndex="2" reason="device.rerouting" replacedAtTime="115.00" probability="0" edges="E4E3 E3E2 E2E1 E1D1 D1D0 D0E0"/>
            <route edges="E4E3 E3E2 E2E1 E1E0 E0D0 D0E0"/>
        </routeDistribution>
    </vehicle>

    <vehicle id="9" depart="9.00" arrival="173.00">
        <route edges="D4C4 C4C3 C3C2 C2C1 C1B1 B1B0 B0A0 A0A1"/>
    </vehicle>

    <vehicle id="106" depart="106.00" arrival="173.00">
        <route edges="C1C2 C2C1 C1C0 C0D0"/>
    </vehicle>

    <vehicle id="109" depart="109.00" arrival="175.00">
        <route edges="A4B4 B4B3 B3B2 B2C2"/>
    </vehicle>

    <vehicle id="110" depart="110.00" arrival="179.00">
        <route edges="E3E4 E4D4 D4C4 C4B4"/>
    </vehicle>

    <vehicle id="18" depart="18.00" arrival="180.00">
        <routeDistribution>
            <route replacedOnEdge="E3D3" replacedOnIndex="2" reason="device.rerouting" replacedAtTime="68.00" probability="0" edges="D4E4 E4E3 E3D3 D3C3 C3C2 C2D2 D2D1 D1D0 D0C0"/>
            <route edges="D4E4 E4E3 E3D3 D3C3 C3C2 C2D2 D2D1 D1D0 D0C0"/>
        </routeDistribution>
    </vehicle>

    <vehicle id="45" depart="45.00" arrival="180.00">
        <routeDistribution>
            <route replacedOnEdge="A2B2" replacedOnIndex="1" reason="device.rerouting" replacedAtTime="65.00" probability="0" edges="A3A2 A2B2 B2C2 C2D2 D2D1 D1D0 D0D1"/>
            <route edges="A3A2 A2B2 B2C2 C2D2 D2D1 D1D0 D0D1"/>
        </routeDistribution>
    </vehicle>

    <vehicle id="46" depart="46.00" arrival="180.00">
        <routeDistribution>
            <route replacedOnEdge="E3E2" replacedOnIndex="1" reason="device.rerouting" replacedAtTime="66.00" probability="0" edges="D3E3 E3E2 E2E1 E1D1 D1D0 D0C0 C0D0"/>
            <route replacedOnEdge="E1D1" replacedOnIndex="3" reason="device.rerouting" replacedAtTime="116.00" probability="0" edges="D3E3 E3E2 E2E1 E1D1 D1D0 D0C0 C0D0"/>
            <route edges="D3E3 E3E2 E2E1 E1D1 D1C1 C1C0 C0D0"/>
        </routeDistribution>
    </vehicle>

    <vehicle id="89" depart="89.00" arrival="180.00">
        <route edges="C0D0 D0D1 D1C1 C1D1"/>
    </vehicle>

    <vehicle id="35" depart="35.00" arrival="181.00">
        <routeDistribution>
            <route replacedOnEdge="A1B1" replacedOnIndex="1" reason="device.rerouting" replacedAtTime="55.00" probability="0" edges="B1A1 A1B1 B1B2 B2C2 C2C3 C3D3 D3E3 E3D3"/>
            <route replacedOnEdge="B1B2" replacedOnIndex="2" reason="device.rerouting" replacedAtTime="85.00" probability="0" edges="B1A1 A1B1 B1B2 B2C2 C2C3 C3D3 D3E3 E3D3"/>
            <route replacedOnEdge="B2C2" replacedOnIndex="3" reason="device.rerouting" replacedAtTime="105.00" probability="0" edges="B1A1 A1B1 B1B2 B2C2 C2C3 C3D3 D3E3 E3D3"/>
            <route edges="B1A1 A1B1 B1B2 B2C2 C2D2 D2E2 E2E3 E3D3"/>
        </routeDistribution>
    </vehicle>

    <vehicle id="55" depart="55.00" arrival="181.00">
        <routeDistribution>
            <route replacedOnEdge="E1E0" reason="device.rerouting" replacedAtTime="65.00" probability="0" edges="E1E0 E0D0 D0D1 D1D2 D2C2 C2B2 B2B1"/>
            <route replacedOnEdge="E0D0" replacedOnIndex="1" reason="device.rerouting" replacedAtTime="85.00" probability="0" edges="E1E0 E0D0 D0D1 D1D2 D2C2 C2B2 B2B1"/>
            <route edges="E1E0 E0D0 D0D1 D1D2 D2C2 C2B2 B2B1"/>
        </routeDistribution>
    </vehicle>

    <vehicle id="64" depart="64.00" arrival="181.00">
        <route edges="E1E0 E0D0 D0D1 D1D2 D2D3 D3D4 D4E4"/>
    </vehicle>

    <vehicle id="50" depart="53.00" arrival="182.00">
        <routeDistribution>
            <route replacedOnEdge="A1B1" replacedOnIndex="1" reason="device.rerouting" replacedAtTime="83.00" probability="0" edges="A0A1 A1B1 B1B2 B2C2 C2D2 D2D1"/>
            <route replacedOnEdge="A1B1" replacedOnIndex="1" reason="device.rerouting" replacedAtTime="103.00" probability="0" edges="A0A1 A1B1 B1B2 B2C2 C2D2 D2D1"/>
            <route edges="A0A1 A1B1 B1C1 C1C2 C2D2 D2D1"/>
        </routeDistribution>
    </vehicle>

    <vehicle id="36" depart="37.00" arrival="185.00">
        <routeDistribution>
            <route replacedOnEdge="E1E0" reason="device.rerouting" replacedAtTime="47.00" probability="0" edges="E1E0 E0D0 D0C0 C0C1 C1C2 C2B2 B2B3 B3B2"/>
            <route replacedOnEdge="D0C0" replacedOnIndex="2" reason="device.rerouting" replacedAtTime="77.00" probability="0" edges="E1E0 E0D0 D0C0 C0C1 C1C2 C2B2 B2B3 B3B2"/>
            <route replacedOnEdge="C1C2" replacedOnIndex="4" reason="device.rerouting" replacedAtTime="117.00" probability="0" edges="E1E0 E0D0 D0C0 C0C1 C1C2 C2B2 B2B3 B3B2"/>
            <route edges="E1E0 E0D0 D0C0 C0C1 C1C2 C2C3 C3B3 B3B2"/>
        </routeDistribution>
    </vehicle>

    <vehicle id="152" depart="152.00" arrival="186.00">
        <route edges="A4A3 A3B3"/>
    </vehicle>

    <vehicle id="80" depart="89.00" arrival="187.00">
        <route edges="A2A1 A1A0 A0B0 B0C0 C0D0 D0D1"/>
    </vehicle>

    <vehicle id="117" depart="120.00" arrival="187.00">
        <routeDistribution>
            <route replacedOnEdge="B1B2" reason="device.rerouting" replacedAtTime="130.00" probability="0" edges="B1B2 B2A2 A2A3 A3A4"/>
            <route edges="B1B2 B2B3 B3A3 A3A4"/>
        </routeDistribution>
    </vehicle>

    <vehicle id="77" depart="77.00" arrival="188.00">
        <route edges="A3A4 A4B4 B4B3 B3B2 B2B1 B1B0"/>
    </vehicle>

    <vehicle id="83" depart="83.00" arrival="188.00">
        <route edges="B1C1 C1D1 D1D0"/>
    </vehicle>

    <vehicle id="137" depart="137.00" arrival="188.00">
        <route edges="A3B3 B3A3 A3A4"/>
    </vehicle>

    <vehicle id="66" depart="67.00" arrival="189.00">
        <routeDistribution>
            <route replacedOnEdge="E1E0" reason="device.rerouting" replacedAtTime="87.00" probability="0" edges="E1E0 E0D0 D0D1 D1E1 E1E2 E2E3 E3D3"/>
            <route edges="E1E0 E0D0 D0D1 D1E1 E1E2 E2E3 E3D3"/>
        </routeDistribution>
    </vehicle>

    <vehicle id="103" depart="103.00" arrival="189.00">
        <routeDistribution>
            <route replacedOnEdge="C0C1" reason="device.rerouting" replacedAtTime="113.00" probability="0" edges="C0C1 C1B1 B1A1 A1B1"/>
            <route replacedOnEdge="C0C1" reason="device.rerouting" replacedAtTime="123.00" probability="0" edges="C0C1 C1C0 C0B0 B0A0 A0A1 A1B1"/>
            <route edges="C0C1 C1B1 B1A1 A1B1"/>
        </routeDistribution>
    </vehicle>

    <vehicle id="123" depart="123.00" arrival="189.00">
        <route edges="B1C1 C1C0 C0B0"/>
    </vehicle>

    <vehicle id="93" depart="93.00" arrival="190.00">
        <routeDistribution>
            <route replacedOnEdge="E0E1" reason="device.rerouting" replacedAtTime="113.00" probability="0" edges="E0E1 E1D1 D1C1 C1B1 B1C1"/>
            <route replacedOnEdge="E1D1" replacedOnIndex="1" reason="device.rerouting" replacedAtTime="123.00" probability="0" edges="E0E1 E1D1 D1C1 C1C0 C0B0 B0B1 B1C1"/>
            <route edges="E0E1 E1D1 D1C1 C1B1 B1C1"/>
        </routeDistribution>
    </vehicle>

    <vehicle id="95" depart="96.00" arrival="190.00">
        <routeDistribution>
            <route replacedOnEdge="C0D0" reason="device.rerouting" replacedAtTime="106.00" probability="0" edges="C0D0 D0D1 D1D2 D2C2 C2B2 B2B3"/>
            <route replacedOnEdge="D0C0" replacedOnIndex="1" reason="device.rerouting" replacedAtTime="126.00" probability="0" edges="C0D0 D0C0 C0B0 B0B1 B1B2 B2B3"/>
            <route replacedOnEdge="C0C1" replacedOnIndex="2" reason="device.rerouting" replacedAtTime="136.00" probability="0" edges="C0D0 D0C0 C0C1 C1C2 C2B2 B2B3"/>
            <route edges="C0D0 D0C0 C0C1 C1B1 B1B2 B2B3"/>
        </routeDistribution>
    </vehicle>

    <vehicle id="90" depart="127.00" arrival="191.00">
        <route edges="D2D3 D3D2 D2D1 D1D0"/>
    </vehicle>

    <vehicle id="92" depart="97.00" arrival="193.00">
        <routeDistribution>
            <route replacedOnEdge="C0C1" reason="device.rerouting" replacedAtTime="117.00" probability="0" edges="C0C1 C1C2 C2B2 B2B3 B3C3"/>
            <route replacedOnEdge="C1C2" replacedOnIndex="1" reason="device.rerouting" replacedAtTime="127.00" probability="0" edges="C0C1 C1C2 C2C3 C3B3 B3C3"/>
            <route edges="C0C1 C1C2 C2B2 B2B3 B3C3"/>
        </routeDistribution>
    </vehicle>

    <vehicle id="128" depart="129.00" arrival="194.00">
        <route edges="A2A1 A1B1 B1B0"/>
    </vehicle>

    <vehicle id="68" depart="76.00" arrival="195.00">
        <routeDistribution>
            <route replacedOnEdge="A2A1" reason="device.rerouting" replacedAtTime="86.00" probability="0" edges="A2A1 A1A2 A2A3 A3B3 B3C3 C3D3 D3C3"/>
            <route replacedOnEdge="A1A2" replacedOnIndex="1" reason="device.rerouting" replacedAtTime="106.00" probability="0" edges="A2A1 A1A2 A2A3 A3B3 B3C3 C3D3 D3C3"/>
            <route replacedOnEdge="A2B2" replacedOnIndex="2" reason="device.rerouting" replacedAtTime="116.00" probability="0" edges="A2A1 A1A2 A2B2 B2C2 C2D2 D2D3 D3C3"/>
            <route edges="A2A1 A1A2 A2B2 B2B3 B3C3 C3D3 D3C3"/>
        </routeDistribution>
    </vehicle>

    <vehicle id="131" depart="132.00" arrival="195.00">
        <route edges="B4B3 B3A3 A3A4 A4B4"/>
    </vehicle>

    <vehicle id="100" depart="100.00" arrival="196.00">
        <routeDistribution>
            <route replacedOnEdge="" reason="device.rerouting" replacedAtTime="100.00" probability="0" edges="E3E4 E4D4 D4D3 D3D2 D2E2 E2E3"/>
            <route replacedOnEdge="E3E4" reason="device.rerouting" replacedAtTime="110.00" probability="0" edges="E3E4 E4D4 D4E4 E4E3 E3E2 E2E3"/>
            <route replacedOnEdge="E4D4" replacedOnIndex="1" reason="device.rerouting" replacedAtTime="120.00" probability="0" edges="E3E4 E4D4 D4D3 D3E3 E3E2 E2E3"/>
            <route replacedOnEdge="E4D4" replacedOnIndex="1" reason="device.rerouting" replacedAtTime="130.00" probability="0" edges="E3E4 E4D4 D4E4 E4E3 E3E2 E2E3"/>
            <route replacedOnEdge="D4D3" replacedOnIndex="2" reason="device.rerouting" replacedAtTime="140.00" probability="0" edges="E3E4 E4D4 D4D3 D3D2 D2E2 E2E3"/>
            <route edges="E3E4 E4D4 D4D3 D3E3 E3E2 E2E3"/>
        </routeDistribution>
    </vehicle>

    <vehicle id="49" depart="49.00" arrival="197.00">
        <route edges="E3E4 E4D4 D4D3 D3D2 D2D1 D1D0 D0E0 E0E1"/>
    </vehicle>

    <vehicle id="116" depart="116.00" arrival="199.00">
        <routeDistribution>
            <route replacedOnEdge="" reason="device.rerouting" replacedAtTime="116.00" probability="0" edges="C4C3 C3C2 C2C1 C1D1 D1D2"/>
            <route edges="C4C3 C3C2 C2D2 D2D1 D1D2"/>
        </routeDistribution>
    </vehicle>

    <vehicle id="107" depart="107.00" arrival="200.00">
        <routeDistribution>
            <route replacedOnEdge="E3E2" reason="device.rerouting" replacedAtTime="117.00" probability="0" edges="E3E2 E2D2 D2D3 D3D4 D4E4 E4E3"/>
            <route replacedOnEdge="E2E3" replacedOnIndex="1" reason="device.rerouting" replacedAtTime="127.00" probability="0" edges="E3E2 E2E3 E3D3 D3D4 D4E4 E4E3"/>
            <route edges="E3E2 E2E3 E3E4 E4D4 D4E4 E4E3"/>
        </routeDistribution>
    </vehicle>

    <vehicle id="88" depart="90.00" arrival="205.00">
        <routeDistribution>
            <route replacedOnEdge="A2B2" reason="device.rerouting" replacedAtTime="110.00" probability="0" edges="A2B2 B2C2 C2C1 C1B1"/>
            <route edges="A2B2 B2B1 B1C1 C1B1"/>
        </routeDistribution>
    </vehicle>

    <vehicle id="171" depart="171.00" arrival="208.00">
        <route edges="A0B0 B0C0"/>
    </vehicle>

    <vehicle id="126" depart="126.00" arrival="210.00">
        <routeDistribution>
            <route replacedOnEdge="A1B1" replacedOnIndex="1" reason="device.rerouting" replacedAtTime="156.00" probability="0" edges="A2A1 A1B1 B1C1 C1C2"/>
            <route replacedOnEdge="A1B1" replacedOnIndex="1" reason="device.rerouting" replacedAtTime="166.00" probability="0" edges="A2A1 A1B1 B1B0 B0C0 C0C1 C1C2"/>
            <route edges="A2A1 A1B1 B1C1 C1C2"/>
        </routeDistribution>
    </vehicle>

    <vehicle id="59" depart="60.00" arrival="211.00">
        <route edges="C4D4 D4C4 C4B4 B4A4 A4A3 A3A4 A4B4"/>
    </vehicle>

    <vehicle id="69" depart="90.00" arrival="211.00">
        <routeDistribution>
            <route replacedOnEdge="D3D2" reason="device.rerouting" replacedAtTime="120.00" probability="0" edges="D3D2 D2C2 C2B2 B2A2 A2A3 A3B3"/>
            <route replacedOnEdge="C2B2" replacedOnIndex="2" reason="device.rerouting" replacedAtTime="140.00" probability="0" edges="D3D2 D2C2 C2B2 B2B3 B3A3 A3B3"/>
            <route replacedOnEdge="C2B2" replacedOnIndex="2" reason="device.rerouting" replacedAtTime="160.00" probability="0" edges="D3D2 D2C2 C2B2 B2A2 A2A3 A3B3"/>
            <route edges="D3D2 D2C2 C2B2 B2B3 B3A3 A3B3"/>
        </routeDistribution>
    </vehicle>

    <vehicle id="81" depart="85.00" arrival="211.00">
        <route edges="B1B2 B2C2 C2D2 D2E2 E2D2"/>
    </vehicle>

    <vehicle id="71" depart="80.00" arrival="212.00">
        <route edges="B2B1 B1C1 C1D1 D1E1 E1D1"/>
    </vehicle>

    <vehicle id="104" depart="104.00" arrival="212.00">
        <route edges="B4C4 C4C3 C3D3 D3E3 E3E4 E4D4"/>
    </vehicle>

    <vehicle id="111" depart="152.00" arrival="213.00">
        <route edges="C3C2 C2D2 D2E2"/>
    </vehicle>

    <vehicle id="112" depart="112.00" arrival="213.00">
        <routeDistribution>
            <route replacedOnEdge="B1B2" replacedOnIndex="1" reason="device.rerouting" replacedAtTime="142.00" probability="0" edges="A1B1 B1B2 B2B3 B3B4 B4C4 C4B4"/>
            <route edges="A1B1 B1B2 B2B3 B3C3 C3C4 C4B4"/>
        </routeDistribution>
    </vehicle>

    <vehicle id="63" depart="63.00" arrival="215.00">
        <route edges="A0B0 B0B1 B1B2 B2C2 C2D2 D2E2 E2E3"/>
    </vehicle>

    <vehicle id="182" depart="182.00" arrival="216.00">
        <route edges="B4C4 C4B4"/>
    </vehicle>

    <vehicle id="135" depart="135.00" arrival="217.00">
        <routeDistribution>
            <route replacedOnEdge="" reason="device.rerouting" replacedAtTime="135.00" probability="0" edges="D4D3 D3C3 C3B3 B3B2 B2C2"/>
            <route edges="D4D3 D3D2 D2C2 C2B2 B2C2"/>
        </routeDistribution>
    </vehicle>

    <vehicle id="86" depart="87.00" arrival="218.00">
        <route edges="C1D1 D1D2 D2D3 D3D4"/>
    </vehicle>

    <vehicle id="132" depart="135.00" arrival="218.00">
        <routeDistribution>
            <route replacedOnEdge="E4E3" replacedOnIndex="1" reason="device.rerouting" replacedAtTime="165.00" probability="0" edges="D4E4 E4E3 E3D3 D3D2 D2C2"/>
            <route edges="D4E4 E4E3 E3E2 E2D2 D2C2"/>
        </routeDistribution>
    </vehicle>

    <vehicle id="119" depart="119.00" arrival="219.00">
        <routeDistribution>
            <route replacedOnEdge="C4C3" reason="device.rerouting" replacedAtTime="129.00" probability="0" edges="C4C3 C3C2 C2C1 C1C0 C0D0 D0C0"/>
            <route edges="C4C3 C3D3 D3D2 D2D1 D1D0 D0C0"/>
        </routeDistribution>
    </vehicle>

    <vehicle id="121" depart="156.00" arrival="219.00">
        <route edges="C2D2 D2E2 E2E3"/>
    </vehicle>

    <vehicle id="133" depart="133.00" arrival="219.00">
        <route edges="C4D4 D4D3 D3E3 E3E4 E4D4"/>
    </vehicle>

    <vehicle id="115" depart="116.00" arrival="220.00">
        <routeDistribution>
            <route replacedOnEdge="" reason="device.rerouting" replacedAtTime="115.00" probability="0" edges="A2A3 A3A2 A2A1 A1A0 A0B0 B0B1"/>
            <route replacedOnEdge="A2A3" reason="device.rerouting" replacedAtTime="126.00" probability="0" edges="A2A3 A3B3 B3B2 B2B1 B1B0 B0B1"/>
            <route replacedOnEdge="A2A3" reason="device.rerouting" replacedAtTime="136.00" probability="0" edges="A2A3 A3A2 A2A1 A1A0 A0B0 B0B1"/>
            <route replacedOnEdge="A3A2" replacedOnIndex="1" reason="device.rerouting" replacedAtTime="146.00" probability="0" edges="A2A3 A3A2 A2B2 B2B1 B1B0 B0B1"/>
            <route edges="A2A3 A3A2 A2A1 A1A0 A0B0 B0B1"/>
        </routeDistribution>
    </vehicle>

    <vehicle id="140" depart="140.00" arrival="221.00">
        <route edges="D2D1 D1C1 C1B1 B1A1"/>
    </vehicle>

    <vehicle id="96" depart="120.00" arrival="223.00">
        <routeDistribution>
            <route replacedOnEdge="" reason="device.rerouting" replacedAtTime="100.00" probability="0" edges="B1C1 C1C2 C2D2 D2E2 E2E1"/>
            <route replacedOnEdge="B1C1" reason="device.rerouting" replacedAtTime="130.00" probability="0" edges="B1C1 C1D1 D1E1 E1E2 E2E1"/>
            <route edges="B1C1 C1C2 C2D2 D2E2 E2E1"/>
        </routeDistribution>
    </vehicle>

    <vehicle id="41" depart="41.00" arrival="227.00">
        <routeDistribution>
            <route replacedOnEdge="C4B4" reason="device.rerouting" replacedAtTime="61.00" probability="0" edges="C4B4 B4B3 B3B2 B2C2 C2D2 D2D1 D1E1 E1E2"/>
            <route replacedOnEdge="B3B2" replacedOnIndex="2" reason="device.rerouting" replacedAtTime="81.00" probability="0" edges="C4B4 B4B3 B3B2 B2C2 C2D2 D2D1 D1E1 E1E2"/>
            <route replacedOnEdge="B2C2" replacedOnIndex="3" reason="device.rerouting" replacedAtTime="101.00" probability="0" edges="C4B4 B4B3 B3B2 B2C2 C2D2 D2D1 D1E1 E1E2"/>
            <route replacedOnEdge="B2C2" replacedOnIndex="3" reason="device.rerouting" replacedAtTime="111.00" probability="0" edges="C4B4 B4B3 B3B2 B2C2 C2C1 C1D1 D1E1 E1E2"/>
            <route replacedOnEdge="B2C2" replacedOnIndex="3" reason="device.rerouting" replacedAtTime="131.00" probability="0" edges="C4B4 B4B3 B3B2 B2C2 C2D2 D2D1 D1E1 E1E2"/>
            <route replacedOnEdge="C2D2" replacedOnIndex="4" reason="device.rerouting" replacedAtTime="151.00" probability="0" edges="C4B4 B4B3 B3B2 B2C2 C2D2 D2E2 E2E1 E1E2"/>
            <route replacedOnEdge="C2D2" replacedOnIndex="4" reason="device.rerouting" replacedAtTime="171.00" probability="0" edges="C4B4 B4B3 B3B2 B2C2 C2D2 D2D1 D1E1 E1E2"/>
            <route edges="C4B4 B4B3 B3B2 B2C2 C2D2 D2E2 E2E1 E1E2"/>
        </routeDistribution>
    </vehicle>

    <vehicle id="87" depart="115.00" arrival="227.00">
        <route edges="D4C4 C4B4 B4B3 B3B2 B2B1 B1B0 B0C0"/>
    </vehicle>

    <vehicle id="108" depart="152.00" arrival="228.00">
        <routeDistribution>
            <route replacedOnEdge="C3C4" reason="device.rerouting" replacedAtTime="162.00" probability="0" edges="C3C4 C4C3 C3C2 C2D2 D2D1"/>
            <route edges="C3C4 C4D4 D4D3 D3D2 D2D1"/>
        </routeDistribution>
    </vehicle>
