<?xml version="1.0" encoding="UTF-8"?>

<!-- generated on 05/02/13 14:01:08 by SUMO dfrouter Version 0.17.0
<?xml version="1.0" encoding="UTF-8"?>

<configuration xmlns:xsi="http://www.w3.org/2001/XMLSchema-instance" xsi:noNamespaceSchemaLocation="http://sumo-sim.org/xsd/dfrouterConfiguration.xsd">

    <input>
        <net-file value="input_net.net.xml"/>
        <detector-files value="input_detectors.det.xml"/>
        <measure-files value="input_flows.txt"/>
    </input>

    <output>
        <routes-output value="routes.rou.xml"/>
        <detector-output value="detectors_def.det.xml"/>
        <emitters-output value="emitters.add.xml"/>
    </output>

    <processing>
        <min-route-length value="100"/>
    </processing>

    <time>
        <end value="60"/>
    </time>

    <report>
        <verbose value="true"/>
    </report>

</configuration>
-->

<detectors>
    <detectorDefinition id="LI" lane="11_21_0" pos="100.00" type="source"/>
    <detectorDefinition id="LO" lane="20_10_0" pos="100.00" type="sink"/>
    <detectorDefinition id="RI" lane="60_50_0" pos="100.00" type="source"/>
    <detectorDefinition id="RO" lane="51_61_0" pos="100.00" type="sink"/>
    <detectorDefinition id="BI" lane="a5_a4_0" pos="50.00" type="source"/>
    <detectorDefinition id="BO" lane="a4_a5_0" pos="50.00" type="sink"/>
</detectors>
