<?xml version="1.0" encoding="UTF-8"?>

<!-- generated on Thu Jun 12 11:21:57 2014 by SUMO sumo Version dev-SVN-r16586
<?xml version="1.0" encoding="UTF-8"?>

<configuration xmlns:xsi="http://www.w3.org/2001/XMLSchema-instance" xsi:noNamespaceSchemaLocation="http://sumo.dlr.de/xsd/sumoConfiguration.xsd">

    <input>
        <net-file value="three_split.net.xml"/>
        <route-files value="input_routes.rou.xml"/>
        <additional-files value="input_additional.add.xml"/>
    </input>

    <output>
        <vehroute-output value="vehroutes.xml"/>
    </output>

    <report>
        <xml-validation value="never"/>
        <no-duration-log value="true"/>
        <no-step-log value="true"/>
    </report>

</configuration>
-->

<meandata xmlns:xsi="http://www.w3.org/2001/XMLSchema-instance" xsi:noNamespaceSchemaLocation="http://sumo.dlr.de/xsd/meandata_file.xsd">
    <interval begin="0.00" end="100.00" id="expect10vehs">
        <edge id="beg" sampledSeconds="147.89" traveltime="17.99" density="2.96" occupancy="1.48" waitingTime="0.00" speed="27.80" departed="10" arrived="0" entered="0" left="6" laneChangedFrom="0" laneChangedTo="0"/>
        <edge id="beg2left" sampledSeconds="0.00" departed="0" arrived="0" entered="0" left="0" laneChangedFrom="0" laneChangedTo="0"/>
        <edge id="beg2right" sampledSeconds="0.00" departed="0" arrived="0" entered="0" left="0" laneChangedFrom="0" laneChangedTo="0"/>
        <edge id="end" sampledSeconds="27.39" traveltime="17.99" density="0.55" occupancy="0.27" waitingTime="0.00" speed="27.80" departed="0" arrived="0" entered="2" left="1" laneChangedFrom="0" laneChangedTo="0"/>
        <edge id="left" sampledSeconds="0.00" departed="0" arrived="0" entered="0" left="0" laneChangedFrom="0" laneChangedTo="0"/>
        <edge id="left2end" sampledSeconds="0.00" departed="0" arrived="0" entered="0" left="0" laneChangedFrom="0" laneChangedTo="0"/>
        <edge id="middle" sampledSeconds="115.09" traveltime="35.97" density="1.15" occupancy="0.58" waitingTime="0.00" speed="27.80" departed="0" arrived="0" entered="6" left="2" laneChangedFrom="0" laneChangedTo="0"/>
        <edge id="rend" sampledSeconds="18.17" traveltime="17.99" density="0.36" occupancy="0.18" waitingTime="0.00" speed="27.80" departed="0" arrived="1" entered="1" left="0" laneChangedFrom="0" laneChangedTo="0"/>
        <edge id="right" sampledSeconds="0.00" departed="0" arrived="0" entered="0" left="0" laneChangedFrom="0" laneChangedTo="0"/>
        <edge id="right2end" sampledSeconds="0.00" departed="0" arrived="0" entered="0" left="0" laneChangedFrom="0" laneChangedTo="0"/>
    </interval>
    <interval begin="200.00" end="400.00" id="expect31vehs">
        <edge id="beg" sampledSeconds="522.28" traveltime="18.01" density="5.22" occupancy="2.61" waitingTime="0.00" speed="27.76" departed="31" arrived="0" entered="0" left="27" laneChangedFrom="0" laneChangedTo="0"/>
        <edge id="beg2left" sampledSeconds="0.00" departed="0" arrived="0" entered="0" left="0" laneChangedFrom="0" laneChangedTo="0"/>
        <edge id="beg2right" sampledSeconds="0.00" departed="0" arrived="0" entered="0" left="0" laneChangedFrom="0" laneChangedTo="0"/>
        <edge id="end" sampledSeconds="321.33" traveltime="17.99" density="3.21" occupancy="1.61" waitingTime="0.00" speed="27.80" departed="0" arrived="0" entered="19" left="16" laneChangedFrom="0" laneChangedTo="0"/>
        <edge id="left" sampledSeconds="0.00" departed="0" arrived="0" entered="0" left="0" laneChangedFrom="0" laneChangedTo="0"/>
        <edge id="left2end" sampledSeconds="0.00" departed="0" arrived="0" entered="0" left="0" laneChangedFrom="0" laneChangedTo="0"/>
        <edge id="middle" sampledSeconds="847.23" traveltime="35.97" density="4.24" occupancy="2.12" waitingTime="0.00" speed="27.80" departed="0" arrived="0" entered="27" left="19" laneChangedFrom="0" laneChangedTo="0"/>
        <edge id="rend" sampledSeconds="244.76" traveltime="17.99" density="2.45" occupancy="1.22" waitingTime="0.00" speed="27.80" departed="0" arrived="11" entered="16" left="0" laneChangedFrom="0" laneChangedTo="0"/>
        <edge id="right" sampledSeconds="0.00" departed="0" arrived="0" entered="0" left="0" laneChangedFrom="0" laneChangedTo="0"/>
        <edge id="right2end" sampledSeconds="0.00" departed="0" arrived="0" entered="0" left="0" laneChangedFrom="0" laneChangedTo="0"/>
    </interval>
    <interval begin="400.00" end="700.00" id="expect100vehs">
        <edge id="beg" sampledSeconds="1781.01" traveltime="18.01" density="11.87" occupancy="5.94" waitingTime="0.00" speed="27.77" departed="100" arrived="0" entered="0" left="98" laneChangedFrom="0" laneChangedTo="0"/>
        <edge id="beg2left" sampledSeconds="0.00" departed="0" arrived="0" entered="0" left="0" laneChangedFrom="0" laneChangedTo="0"/>
        <edge id="beg2right" sampledSeconds="0.00" departed="0" arrived="0" entered="0" left="0" laneChangedFrom="0" laneChangedTo="0"/>
        <edge id="end" sampledSeconds="1709.84" traveltime="17.99" density="11.40" occupancy="5.70" waitingTime="0.00" speed="27.80" departed="0" arrived="0" entered="95" left="93" laneChangedFrom="0" laneChangedTo="0"/>
        <edge id="left" sampledSeconds="0.00" departed="0" arrived="0" entered="0" left="0" laneChangedFrom="0" laneChangedTo="0"/>
        <edge id="left2end" sampledSeconds="0.00" departed="0" arrived="0" entered="0" left="0" laneChangedFrom="0" laneChangedTo="0"/>
        <edge id="middle" sampledSeconds="3487.06" traveltime="35.97" density="11.62" occupancy="5.81" waitingTime="0.00" speed="27.80" departed="0" arrived="0" entered="98" left="95" laneChangedFrom="0" laneChangedTo="0"/>
        <edge id="rend" sampledSeconds="1680.46" traveltime="17.99" density="11.20" occupancy="5.60" waitingTime="0.00" speed="27.80" departed="0" arrived="92" entered="93" left="0" laneChangedFrom="0" laneChangedTo="0"/>
        <edge id="right" sampledSeconds="0.00" departed="0" arrived="0" entered="0" left="0" laneChangedFrom="0" laneChangedTo="0"/>
        <edge id="right2end" sampledSeconds="0.00" departed="0" arrived="0" entered="0" left="0" laneChangedFrom="0" laneChangedTo="0"/>
    </interval>
    <interval begin="2000.00" end="2100.00" id="expect10vehs">
        <edge id="beg" sampledSeconds="188.77" traveltime="18.03" density="3.78" occupancy="1.89" waitingTime="0.00" speed="27.73" departed="56" arrived="0" entered="0" left="56" laneChangedFrom="0" laneChangedTo="0" vaporized="46"/>
        <edge id="beg2left" sampledSeconds="0.00" departed="0" arrived="0" entered="0" left="0" laneChangedFrom="0" laneChangedTo="0"/>
        <edge id="beg2right" sampledSeconds="0.00" departed="0" arrived="0" entered="0" left="0" laneChangedFrom="0" laneChangedTo="0"/>
        <edge id="end" sampledSeconds="181.65" traveltime="17.99" density="3.63" occupancy="1.82" waitingTime="0.00" speed="27.80" departed="0" arrived="0" entered="10" left="10" laneChangedFrom="0" laneChangedTo="0"/>
        <edge id="left" sampledSeconds="0.00" departed="0" arrived="0" entered="0" left="0" laneChangedFrom="0" laneChangedTo="0"/>
        <edge id="left2end" sampledSeconds="0.00" departed="0" arrived="0" entered="0" left="0" laneChangedFrom="0" laneChangedTo="0"/>
        <edge id="middle" sampledSeconds="361.54" traveltime="35.97" density="3.62" occupancy="1.81" waitingTime="0.00" speed="27.80" departed="0" arrived="0" entered="10" left="10" laneChangedFrom="0" laneChangedTo="0"/>
        <edge id="rend" sampledSeconds="165.69" traveltime="17.99" density="3.31" occupancy="1.66" waitingTime="0.00" speed="27.80" departed="0" arrived="6" entered="10" left="0" laneChangedFrom="0" laneChangedTo="0"/>
        <edge id="right" sampledSeconds="0.00" departed="0" arrived="0" entered="0" left="0" laneChangedFrom="0" laneChangedTo="0"/>
        <edge id="right2end" sampledSeconds="0.00" departed="0" arrived="0" entered="0" left="0" laneChangedFrom="0" laneChangedTo="0"/>
    </interval>
    <interval begin="2200.00" end="2400.00" id="expect31vehs">
        <edge id="beg" sampledSeconds="677.20" traveltime="18.03" density="6.77" occupancy="3.39" waitingTime="0.00" speed="27.72" departed="111" arrived="0" entered="0" left="122" laneChangedFrom="0" laneChangedTo="0" vaporized="80"/>
        <edge id="beg2left" sampledSeconds="0.00" departed="0" arrived="0" entered="0" left="0" laneChangedFrom="0" laneChangedTo="0"/>
        <edge id="beg2right" sampledSeconds="0.00" departed="0" arrived="0" entered="0" left="0" laneChangedFrom="0" laneChangedTo="0"/>
        <edge id="end" sampledSeconds="1211.19" traveltime="17.99" density="12.11" occupancy="6.06" waitingTime="0.00" speed="27.80" departed="0" arrived="0" entered="62" left="72" laneChangedFrom="0" laneChangedTo="0"/>
        <edge id="left" sampledSeconds="0.00" departed="0" arrived="0" entered="0" left="0" laneChangedFrom="0" laneChangedTo="0"/>
        <edge id="left2end" sampledSeconds="0.00" departed="0" arrived="0" entered="0" left="0" laneChangedFrom="0" laneChangedTo="0"/>
        <edge id="middle" sampledSeconds="1868.64" traveltime="35.97" density="9.34" occupancy="4.67" waitingTime="0.00" speed="27.80" departed="0" arrived="0" entered="42" left="62" laneChangedFrom="0" laneChangedTo="0"/>
        <edge id="rend" sampledSeconds="1392.70" traveltime="17.99" density="13.93" occupancy="6.96" waitingTime="0.00" speed="27.80" departed="0" arrived="82" entered="72" left="0" laneChangedFrom="0" laneChangedTo="0"/>
        <edge id="right" sampledSeconds="0.00" departed="0" arrived="0" entered="0" left="0" laneChangedFrom="0" laneChangedTo="0"/>
        <edge id="right2end" sampledSeconds="0.00" departed="0" arrived="0" entered="0" left="0" laneChangedFrom="0" laneChangedTo="0"/>
    </interval>
    <interval begin="2400.00" end="2700.00" id="expect100vehs">
        <edge id="beg" sampledSeconds="1815.38" traveltime="18.04" density="12.10" occupancy="6.05" waitingTime="0.00" speed="27.72" departed="166" arrived="0" entered="0" left="166" laneChangedFrom="0" laneChangedTo="0" vaporized="66"/>
        <edge id="beg2left" sampledSeconds="0.00" departed="0" arrived="0" entered="0" left="0" laneChangedFrom="0" laneChangedTo="0"/>
        <edge id="beg2right" sampledSeconds="0.00" departed="0" arrived="0" entered="0" left="0" laneChangedFrom="0" laneChangedTo="0"/>
        <edge id="end" sampledSeconds="1816.55" traveltime="17.99" density="12.11" occupancy="6.06" waitingTime="0.00" speed="27.80" departed="0" arrived="0" entered="100" left="100" laneChangedFrom="0" laneChangedTo="0"/>
        <edge id="left" sampledSeconds="0.00" departed="0" arrived="0" entered="0" left="0" laneChangedFrom="0" laneChangedTo="0"/>
        <edge id="left2end" sampledSeconds="0.00" departed="0" arrived="0" entered="0" left="0" laneChangedFrom="0" laneChangedTo="0"/>
        <edge id="middle" sampledSeconds="3615.44" traveltime="35.97" density="12.05" occupancy="6.03" waitingTime="0.00" speed="27.80" departed="0" arrived="0" entered="100" left="100" laneChangedFrom="0" laneChangedTo="0"/>
        <edge id="rend" sampledSeconds="1816.55" traveltime="17.99" density="12.11" occupancy="6.06" waitingTime="0.00" speed="27.80" departed="0" arrived="100" entered="100" left="0" laneChangedFrom="0" laneChangedTo="0"/>
        <edge id="right" sampledSeconds="0.00" departed="0" arrived="0" entered="0" left="0" laneChangedFrom="0" laneChangedTo="0"/>
        <edge id="right2end" sampledSeconds="0.00" departed="0" arrived="0" entered="0" left="0" laneChangedFrom="0" laneChangedTo="0"/>
    </interval>
</meandata>
