<?xml version="1.0"?>

<!-- generated on Thu Apr  4 14:09:06 2013 by SUMO sumo Version dev-SVN-r13585
<?xml version="1.0" encoding="UTF-8"?>

<configuration xmlns:xsi="http://www.w3.org/2001/XMLSchema-instance" xsi:noNamespaceSchemaLocation="http://sumo.sf.net/xsd/sumoConfiguration.xsd">

    <input>
        <net-file value="three_split.net.xml"/>
        <route-files value="input_routes.rou.xml"/>
        <additional-files value="input_additional.add.xml"/>
    </input>

    <output>
        <vehroute-output value="vehroutes.xml"/>
    </output>

    <report>
        <no-duration-log value="true"/>
        <no-step-log value="true"/>
    </report>

</configuration>
-->

<calibratorstats>
   <interval begin="0.00" end="100.00" id="calibtest" nVehContrib="10" removed="0" inserted="7" cleared="0" flow="360.00" aspiredFlow="360.00" speed="27.11" aspiredSpeed="-1.00"/>
   <interval begin="200.00" end="400.00" id="calibtest" nVehContrib="31" removed="0" inserted="25" cleared="0" flow="558.00" aspiredFlow="558.00" speed="27.17" aspiredSpeed="-1.00"/>
   <interval begin="400.00" end="700.00" id="calibtest" nVehContrib="100" removed="0" inserted="92" cleared="0" flow="1200.00" aspiredFlow="1200.00" speed="27.16" aspiredSpeed="-1.00"/>
   <interval begin="2000.00" end="2100.00" id="calibtest" nVehContrib="10" removed="0" inserted="0" cleared="0" flow="360.00" aspiredFlow="360.00" speed="27.20" aspiredSpeed="-1.00"/>
   <interval begin="2200.00" end="2400.00" id="calibtest" nVehContrib="31" removed="0" inserted="0" cleared="0" flow="558.00" aspiredFlow="558.00" speed="27.14" aspiredSpeed="-1.00"/>
   <interval begin="2400.00" end="2700.00" id="calibtest" nVehContrib="100" removed="0" inserted="0" cleared="0" flow="1200.00" aspiredFlow="1200.00" speed="27.15" aspiredSpeed="-1.00"/>
</calibratorstats>
