<?xml version="1.0" encoding="UTF-8"?>

<!-- generated on Fri Mar 22 13:18:50 2019 by Eclipse SUMO Version v1_1_0+0417-c407ef5
<configuration xmlns:xsi="http://www.w3.org/2001/XMLSchema-instance" xsi:noNamespaceSchemaLocation="https://sumo.dlr.de/xsd/sumoConfiguration.xsd">

    <input>
        <net-file value="input_net.net.xml"/>
        <route-files value="input_routes.rou.xml"/>
        <additional-files value="input_additional.add.xml"/>
    </input>

    <report>
        <no-step-log value="true"/>
    </report>

    <traci_server>
        <remote-port value="47221"/>
    </traci_server>

</configuration>
-->

<detector xmlns:xsi="http://www.w3.org/2001/XMLSchema-instance" xsi:noNamespaceSchemaLocation="https://sumo.dlr.de/xsd/det_e1_file.xsd">
    <interval begin="0.00" end="381.00" id="4_1" nVehContrib="24" flow="226.77" occupancy="2.58" speed="12.24" harmonicMeanSpeed="12.19" length="5.00" nVehEntered="24"/>
    <interval begin="0.00" end="381.00" id="4_2" nVehContrib="20" flow="188.98" occupancy="2.01" speed="13.15" harmonicMeanSpeed="13.08" length="5.00" nVehEntered="20"/>
</detector>
