<?xml version="1.0" encoding="UTF-8"?>

<!-- generated on 2022-08-24 14:12:51 by Eclipse SUMO sumo Version v1_14_1+0492-9530149
This data file and the accompanying materials
are made available under the terms of the Eclipse Public License v2.0
which accompanies this distribution, and is available at
http://www.eclipse.org/legal/epl-v20.html
This file may also be made available under the following Secondary
Licenses when the conditions for such availability set forth in the Eclipse
Public License 2.0 are satisfied: GNU General Public License, version 2
or later which is available at
https://www.gnu.org/licenses/old-licenses/gpl-2.0-standalone.html
SPDX-License-Identifier: EPL-2.0 OR GPL-2.0-or-later
<configuration xmlns:xsi="http://www.w3.org/2001/XMLSchema-instance" xsi:noNamespaceSchemaLocation="http://sumo.dlr.de/xsd/sumoConfiguration.xsd">

    <input>
        <net-file value="net.net.xml"/>
        <route-files value="input_routes.rou.xml"/>
    </input>

    <output>
        <write-license value="true"/>
        <fcd-output value="fcd.xml"/>
    </output>

    <processing>
        <default.speeddev value="0"/>
    </processing>

    <report>
        <xml-validation value="never"/>
        <no-step-log value="true"/>
    </report>

</configuration>
-->

<fcd-export xmlns:xsi="http://www.w3.org/2001/XMLSchema-instance" xsi:noNamespaceSchemaLocation="http://sumo.dlr.de/xsd/fcd_file.xsd">
    <timestep time="0.00">
        <vehicle id="first" x="5.10" y="0.00" angle="90.00" type="t0" speed="27.78" pos="5.10" lane="0_0" slope="0.00"/>
    </timestep>
    <timestep time="1.00">
        <vehicle id="first" x="31.72" y="0.00" angle="90.00" type="t0" speed="26.62" pos="31.72" lane="0_0" slope="0.00"/>
    </timestep>
    <timestep time="2.00">
        <vehicle id="first" x="58.58" y="0.00" angle="90.00" type="t0" speed="26.85" pos="58.58" lane="0_0" slope="0.00"/>
        <vehicle id="flow.0" x="24.03" y="0.00" angle="90.00" type="t1" speed="26.92" pos="24.03" lane="0_0" slope="0.00"/>
    </timestep>
    <timestep time="3.00">
        <vehicle id="first" x="86.30" y="0.00" angle="90.00" type="t0" speed="27.72" pos="86.30" lane="0_0" slope="0.00"/>
        <vehicle id="flow.0" x="50.90" y="0.00" angle="90.00" type="t1" speed="26.87" pos="50.90" lane="0_0" slope="0.00"/>
        <vehicle id="flow.1" x="18.31" y="0.00" angle="90.00" type="t1" speed="25.43" pos="18.31" lane="0_0" slope="0.00"/>
    </timestep>
    <timestep time="4.00">
        <vehicle id="first" x="113.44" y="0.00" angle="90.00" type="t0" speed="27.14" pos="113.44" lane="0_0" slope="0.00"/>
        <vehicle id="flow.0" x="77.83" y="0.00" angle="90.00" type="t1" speed="26.92" pos="77.83" lane="0_0" slope="0.00"/>
        <vehicle id="flow.1" x="43.74" y="0.00" angle="90.00" type="t1" speed="25.43" pos="43.74" lane="0_0" slope="0.00"/>
        <vehicle id="flow.2" x="9.71" y="0.00" angle="90.00" type="t1" speed="25.59" pos="9.71" lane="0_0" slope="0.00"/>
    </timestep>
    <timestep time="5.00">
        <vehicle id="first" x="140.45" y="0.00" angle="90.00" type="t0" speed="27.01" pos="140.45" lane="0_0" slope="0.00"/>
        <vehicle id="flow.0" x="104.75" y="0.00" angle="90.00" type="t1" speed="26.92" pos="104.75" lane="0_0" slope="0.00"/>
        <vehicle id="flow.1" x="69.17" y="0.00" angle="90.00" type="t1" speed="25.43" pos="69.17" lane="0_0" slope="0.00"/>
        <vehicle id="flow.2" x="35.21" y="0.00" angle="90.00" type="t1" speed="25.50" pos="35.21" lane="0_0" slope="0.00"/>
        <vehicle id="flow.3" x="0.26" y="0.00" angle="90.00" type="t1" speed="25.70" pos="0.26" lane="0_0" slope="0.00"/>
    </timestep>
    <timestep time="6.00">
        <vehicle id="first" x="168.17" y="0.00" angle="90.00" type="t0" speed="27.72" pos="168.17" lane="0_0" slope="0.00"/>
        <vehicle id="flow.0" x="131.67" y="0.00" angle="90.00" type="t1" speed="26.92" pos="131.67" lane="0_0" slope="0.00"/>
        <vehicle id="flow.1" x="94.61" y="0.00" angle="90.00" type="t1" speed="25.43" pos="94.61" lane="0_0" slope="0.00"/>
        <vehicle id="flow.2" x="60.70" y="0.00" angle="90.00" type="t1" speed="25.48" pos="60.70" lane="0_0" slope="0.00"/>
        <vehicle id="flow.3" x="25.88" y="0.00" angle="90.00" type="t1" speed="25.61" pos="25.88" lane="0_0" slope="0.00"/>
    </timestep>
    <timestep time="7.00">
        <vehicle id="first" x="194.99" y="0.00" angle="90.00" type="t0" speed="26.81" pos="194.99" lane="0_0" slope="0.00"/>
        <vehicle id="flow.0" x="158.59" y="0.00" angle="90.00" type="t1" speed="26.92" pos="158.59" lane="0_0" slope="0.00"/>
        <vehicle id="flow.1" x="120.04" y="0.00" angle="90.00" type="t1" speed="25.43" pos="120.04" lane="0_0" slope="0.00"/>
        <vehicle id="flow.2" x="86.18" y="0.00" angle="90.00" type="t1" speed="25.48" pos="86.18" lane="0_0" slope="0.00"/>
        <vehicle id="flow.3" x="51.45" y="0.00" angle="90.00" type="t1" speed="25.58" pos="51.45" lane="0_0" slope="0.00"/>
        <vehicle id="flow.4" x="18.00" y="0.00" angle="90.00" type="t1" speed="25.70" pos="18.00" lane="0_0" slope="0.00"/>
    </timestep>
    <timestep time="8.00">
        <vehicle id="first" x="222.45" y="0.00" angle="90.00" type="t0" speed="27.46" pos="222.45" lane="0_0" slope="0.00"/>
        <vehicle id="flow.0" x="185.51" y="0.00" angle="90.00" type="t1" speed="26.91" pos="185.51" lane="0_0" slope="0.00"/>
        <vehicle id="flow.1" x="145.47" y="0.00" angle="90.00" type="t1" speed="25.43" pos="145.47" lane="0_0" slope="0.00"/>
        <vehicle id="flow.2" x="111.66" y="0.00" angle="90.00" type="t1" speed="25.48" pos="111.66" lane="0_0" slope="0.00"/>
        <vehicle id="flow.3" x="77.02" y="0.00" angle="90.00" type="t1" speed="25.57" pos="77.02" lane="0_0" slope="0.00"/>
        <vehicle id="flow.4" x="43.61" y="0.00" angle="90.00" type="t1" speed="25.61" pos="43.61" lane="0_0" slope="0.00"/>
        <vehicle id="flow.5" x="7.73" y="0.00" angle="90.00" type="t1" speed="25.85" pos="7.73" lane="0_0" slope="0.00"/>
    </timestep>
    <timestep time="9.00">
        <vehicle id="first" x="249.52" y="0.00" angle="90.00" type="t0" speed="27.07" pos="249.52" lane="0_0" slope="0.00"/>
        <vehicle id="flow.0" x="212.43" y="0.00" angle="90.00" type="t1" speed="26.92" pos="212.43" lane="0_0" slope="0.00"/>
        <vehicle id="flow.1" x="170.90" y="0.00" angle="90.00" type="t1" speed="25.43" pos="170.90" lane="0_0" slope="0.00"/>
        <vehicle id="flow.2" x="137.13" y="0.00" angle="90.00" type="t1" speed="25.48" pos="137.13" lane="0_0" slope="0.00"/>
        <vehicle id="flow.3" x="102.58" y="0.00" angle="90.00" type="t1" speed="25.56" pos="102.58" lane="0_0" slope="0.00"/>
        <vehicle id="flow.4" x="69.20" y="0.00" angle="90.00" type="t1" speed="25.59" pos="69.20" lane="0_0" slope="0.00"/>
        <vehicle id="flow.5" x="33.49" y="0.00" angle="90.00" type="t1" speed="25.76" pos="33.49" lane="0_0" slope="0.00"/>
    </timestep>
    <timestep time="10.00">
        <vehicle id="first" x="276.33" y="0.00" angle="90.00" type="t0" speed="26.81" pos="276.33" lane="0_0" slope="0.00"/>
        <vehicle id="flow.0" x="239.36" y="0.00" angle="90.00" type="t1" speed="26.92" pos="239.36" lane="0_0" slope="0.00"/>
        <vehicle id="flow.1" x="196.34" y="0.00" angle="90.00" type="t1" speed="25.43" pos="196.34" lane="0_0" slope="0.00"/>
        <vehicle id="flow.2" x="162.60" y="0.00" angle="90.00" type="t1" speed="25.47" pos="162.60" lane="0_0" slope="0.00"/>
        <vehicle id="flow.3" x="128.13" y="0.00" angle="90.00" type="t1" speed="25.55" pos="128.13" lane="0_0" slope="0.00"/>
        <vehicle id="flow.4" x="94.77" y="0.00" angle="90.00" type="t1" speed="25.58" pos="94.77" lane="0_0" slope="0.00"/>
        <vehicle id="flow.5" x="59.21" y="0.00" angle="90.00" type="t1" speed="25.72" pos="59.21" lane="0_0" slope="0.00"/>
        <vehicle id="flow.6" x="24.53" y="0.00" angle="90.00" type="t1" speed="25.90" pos="24.53" lane="0_0" slope="0.00"/>
    </timestep>
    <timestep time="11.00">
        <vehicle id="first" x="304.10" y="0.00" angle="90.00" type="t0" speed="27.77" pos="304.10" lane="0_0" slope="0.00"/>
        <vehicle id="flow.0" x="266.28" y="0.00" angle="90.00" type="t1" speed="26.92" pos="266.28" lane="0_0" slope="0.00"/>
        <vehicle id="flow.1" x="221.77" y="0.00" angle="90.00" type="t1" speed="25.43" pos="221.77" lane="0_0" slope="0.00"/>
        <vehicle id="flow.2" x="188.07" y="0.00" angle="90.00" type="t1" speed="25.47" pos="188.07" lane="0_0" slope="0.00"/>
        <vehicle id="flow.3" x="153.67" y="0.00" angle="90.00" type="t1" speed="25.55" pos="153.67" lane="0_0" slope="0.00"/>
        <vehicle id="flow.4" x="120.34" y="0.00" angle="90.00" type="t1" speed="25.57" pos="120.34" lane="0_0" slope="0.00"/>
        <vehicle id="flow.5" x="84.91" y="0.00" angle="90.00" type="t1" speed="25.70" pos="84.91" lane="0_0" slope="0.00"/>
        <vehicle id="flow.6" x="50.34" y="0.00" angle="90.00" type="t1" speed="25.81" pos="50.34" lane="0_0" slope="0.00"/>
        <vehicle id="flow.7" x="16.56" y="0.00" angle="90.00" type="t1" speed="25.94" pos="16.56" lane="0_0" slope="0.00"/>
    </timestep>
    <timestep time="12.00">
        <vehicle id="first" x="331.01" y="0.00" angle="90.00" type="t0" speed="26.91" pos="331.01" lane="0_0" slope="0.00"/>
        <vehicle id="flow.0" x="293.20" y="0.00" angle="90.00" type="t1" speed="26.92" pos="293.20" lane="0_0" slope="0.00"/>
        <vehicle id="flow.1" x="247.20" y="0.00" angle="90.00" type="t1" speed="25.43" pos="247.20" lane="0_0" slope="0.00"/>
        <vehicle id="flow.2" x="213.54" y="0.00" angle="90.00" type="t1" speed="25.47" pos="213.54" lane="0_0" slope="0.00"/>
        <vehicle id="flow.3" x="179.21" y="0.00" angle="90.00" type="t1" speed="25.54" pos="179.21" lane="0_0" slope="0.00"/>
        <vehicle id="flow.4" x="145.90" y="0.00" angle="90.00" type="t1" speed="25.56" pos="145.90" lane="0_0" slope="0.00"/>
        <vehicle id="flow.5" x="110.59" y="0.00" angle="90.00" type="t1" speed="25.68" pos="110.59" lane="0_0" slope="0.00"/>
        <vehicle id="flow.6" x="76.11" y="0.00" angle="90.00" type="t1" speed="25.77" pos="76.11" lane="0_0" slope="0.00"/>
        <vehicle id="flow.7" x="42.41" y="0.00" angle="90.00" type="t1" speed="25.85" pos="42.41" lane="0_0" slope="0.00"/>
        <vehicle id="flow.8" x="7.50" y="0.00" angle="90.00" type="t1" speed="26.03" pos="7.50" lane="0_0" slope="0.00"/>
    </timestep>
    <timestep time="13.00">
        <vehicle id="first" x="356.20" y="0.00" angle="90.00" type="t0" speed="25.19" pos="356.20" lane="0_0" slope="0.00"/>
        <vehicle id="flow.0" x="320.12" y="0.00" angle="90.00" type="t1" speed="26.92" pos="320.12" lane="0_0" slope="0.00"/>
        <vehicle id="flow.1" x="272.63" y="0.00" angle="90.00" type="t1" speed="25.43" pos="272.63" lane="0_0" slope="0.00"/>
        <vehicle id="flow.2" x="239.01" y="0.00" angle="90.00" type="t1" speed="25.47" pos="239.01" lane="0_0" slope="0.00"/>
        <vehicle id="flow.3" x="204.75" y="0.00" angle="90.00" type="t1" speed="25.53" pos="204.75" lane="0_0" slope="0.00"/>
        <vehicle id="flow.4" x="171.45" y="0.00" angle="90.00" type="t1" speed="25.55" pos="171.45" lane="0_0" slope="0.00"/>
        <vehicle id="flow.5" x="136.26" y="0.00" angle="90.00" type="t1" speed="25.67" pos="136.26" lane="0_0" slope="0.00"/>
        <vehicle id="flow.6" x="101.86" y="0.00" angle="90.00" type="t1" speed="25.75" pos="101.86" lane="0_0" slope="0.00"/>
        <vehicle id="flow.7" x="68.21" y="0.00" angle="90.00" type="t1" speed="25.80" pos="68.21" lane="0_0" slope="0.00"/>
        <vehicle id="flow.8" x="33.44" y="0.00" angle="90.00" type="t1" speed="25.94" pos="33.44" lane="0_0" slope="0.00"/>
    </timestep>
    <timestep time="14.00">
        <vehicle id="first" x="375.56" y="0.00" angle="90.00" type="t0" speed="19.36" pos="375.56" lane="0_0" slope="0.00"/>
        <vehicle id="flow.0" x="345.73" y="0.00" angle="90.00" type="t1" speed="25.60" pos="345.73" lane="0_0" slope="0.00"/>
        <vehicle id="flow.1" x="298.07" y="0.00" angle="90.00" type="t1" speed="25.43" pos="298.07" lane="0_0" slope="0.00"/>
        <vehicle id="flow.2" x="264.48" y="0.00" angle="90.00" type="t1" speed="25.47" pos="264.48" lane="0_0" slope="0.00"/>
        <vehicle id="flow.3" x="230.28" y="0.00" angle="90.00" type="t1" speed="25.53" pos="230.28" lane="0_0" slope="0.00"/>
        <vehicle id="flow.4" x="197.00" y="0.00" angle="90.00" type="t1" speed="25.55" pos="197.00" lane="0_0" slope="0.00"/>
        <vehicle id="flow.5" x="161.92" y="0.00" angle="90.00" type="t1" speed="25.66" pos="161.92" lane="0_0" slope="0.00"/>
        <vehicle id="flow.6" x="127.59" y="0.00" angle="90.00" type="t1" speed="25.73" pos="127.59" lane="0_0" slope="0.00"/>
        <vehicle id="flow.7" x="93.98" y="0.00" angle="90.00" type="t1" speed="25.77" pos="93.98" lane="0_0" slope="0.00"/>
        <vehicle id="flow.8" x="59.32" y="0.00" angle="90.00" type="t1" speed="25.88" pos="59.32" lane="0_0" slope="0.00"/>
        <vehicle id="flow.9" x="24.52" y="0.00" angle="90.00" type="t1" speed="26.05" pos="24.52" lane="0_0" slope="0.00"/>
    </timestep>
    <timestep time="15.00">
        <vehicle id="first" x="388.97" y="0.00" angle="90.00" type="t0" speed="13.41" pos="388.97" lane="0_0" slope="0.00"/>
        <vehicle id="flow.0" x="367.28" y="0.00" angle="90.00" type="t1" speed="21.55" pos="367.28" lane="0_0" slope="0.00"/>
        <vehicle id="flow.1" x="323.50" y="0.00" angle="90.00" type="t1" speed="25.43" pos="323.50" lane="0_0" slope="0.00"/>
        <vehicle id="flow.2" x="289.94" y="0.00" angle="90.00" type="t1" speed="25.46" pos="289.94" lane="0_0" slope="0.00"/>
        <vehicle id="flow.3" x="255.80" y="0.00" angle="90.00" type="t1" speed="25.53" pos="255.80" lane="0_0" slope="0.00"/>
        <vehicle id="flow.4" x="222.55" y="0.00" angle="90.00" type="t1" speed="25.54" pos="222.55" lane="0_0" slope="0.00"/>
        <vehicle id="flow.5" x="187.57" y="0.00" angle="90.00" type="t1" speed="25.65" pos="187.57" lane="0_0" slope="0.00"/>
        <vehicle id="flow.6" x="153.31" y="0.00" angle="90.00" type="t1" speed="25.72" pos="153.31" lane="0_0" slope="0.00"/>
        <vehicle id="flow.7" x="119.73" y="0.00" angle="90.00" type="t1" speed="25.75" pos="119.73" lane="0_0" slope="0.00"/>
        <vehicle id="flow.8" x="85.16" y="0.00" angle="90.00" type="t1" speed="25.85" pos="85.16" lane="0_0" slope="0.00"/>
        <vehicle id="flow.9" x="50.48" y="0.00" angle="90.00" type="t1" speed="25.97" pos="50.48" lane="0_0" slope="0.00"/>
    </timestep>
    <timestep time="16.00">
        <vehicle id="first" x="397.14" y="0.00" angle="90.00" type="t0" speed="8.17" pos="397.14" lane="0_0" slope="0.00"/>
        <vehicle id="flow.0" x="381.07" y="0.00" angle="90.00" type="t1" speed="13.79" pos="381.07" lane="0_0" slope="0.00"/>
        <vehicle id="flow.1" x="346.26" y="0.00" angle="90.00" type="t1" speed="22.76" pos="346.26" lane="0_0" slope="0.00"/>
        <vehicle id="flow.2" x="315.40" y="0.00" angle="90.00" type="t1" speed="25.46" pos="315.40" lane="0_0" slope="0.00"/>
        <vehicle id="flow.3" x="281.33" y="0.00" angle="90.00" type="t1" speed="25.52" pos="281.33" lane="0_0" slope="0.00"/>
        <vehicle id="flow.4" x="248.08" y="0.00" angle="90.00" type="t1" speed="25.54" pos="248.08" lane="0_0" slope="0.00"/>
        <vehicle id="flow.5" x="213.21" y="0.00" angle="90.00" type="t1" speed="25.64" pos="213.21" lane="0_0" slope="0.00"/>
        <vehicle id="flow.6" x="179.01" y="0.00" angle="90.00" type="t1" speed="25.70" pos="179.01" lane="0_0" slope="0.00"/>
        <vehicle id="flow.7" x="145.47" y="0.00" angle="90.00" type="t1" speed="25.74" pos="145.47" lane="0_0" slope="0.00"/>
        <vehicle id="flow.8" x="110.98" y="0.00" angle="90.00" type="t1" speed="25.82" pos="110.98" lane="0_0" slope="0.00"/>
        <vehicle id="flow.9" x="76.40" y="0.00" angle="90.00" type="t1" speed="25.92" pos="76.40" lane="0_0" slope="0.00"/>
    </timestep>
    <timestep time="17.00">
        <vehicle id="first" x="399.92" y="0.00" angle="90.00" type="t0" speed="2.78" pos="399.92" lane="0_0" slope="0.00"/>
        <vehicle id="flow.0" x="389.39" y="0.00" angle="90.00" type="t1" speed="8.32" pos="389.39" lane="0_0" slope="0.00"/>
        <vehicle id="flow.1" x="362.03" y="0.00" angle="90.00" type="t1" speed="15.77" pos="362.03" lane="0_0" slope="0.00"/>
        <vehicle id="flow.2" x="338.56" y="0.00" angle="90.00" type="t1" speed="23.16" pos="338.56" lane="0_0" slope="0.00"/>
        <vehicle id="flow.3" x="306.84" y="0.00" angle="90.00" type="t1" speed="25.52" pos="306.84" lane="0_0" slope="0.00"/>
        <vehicle id="flow.4" x="273.62" y="0.00" angle="90.00" type="t1" speed="25.53" pos="273.62" lane="0_0" slope="0.00"/>
        <vehicle id="flow.5" x="238.83" y="0.00" angle="90.00" type="t1" speed="25.63" pos="238.83" lane="0_0" slope="0.00"/>
        <vehicle id="flow.6" x="204.70" y="0.00" angle="90.00" type="t1" speed="25.69" pos="204.70" lane="0_0" slope="0.00"/>
        <vehicle id="flow.7" x="171.19" y="0.00" angle="90.00" type="t1" speed="25.72" pos="171.19" lane="0_0" slope="0.00"/>
        <vehicle id="flow.8" x="136.79" y="0.00" angle="90.00" type="t1" speed="25.80" pos="136.79" lane="0_0" slope="0.00"/>
        <vehicle id="flow.9" x="102.29" y="0.00" angle="90.00" type="t1" speed="25.89" pos="102.29" lane="0_0" slope="0.00"/>
    </timestep>
    <timestep time="18.00">
        <vehicle id="first" x="399.97" y="0.00" angle="90.00" type="t0" speed="0.04" pos="399.97" lane="0_0" slope="0.00"/>
        <vehicle id="flow.0" x="392.21" y="0.00" angle="90.00" type="t1" speed="2.81" pos="392.21" lane="0_0" slope="0.00"/>
        <vehicle id="flow.1" x="372.00" y="0.00" angle="90.00" type="t1" speed="9.98" pos="372.00" lane="0_0" slope="0.00"/>
        <vehicle id="flow.2" x="354.27" y="0.00" angle="90.00" type="t1" speed="15.71" pos="354.27" lane="0_0" slope="0.00"/>
        <vehicle id="flow.3" x="330.78" y="0.00" angle="90.00" type="t1" speed="23.93" pos="330.78" lane="0_0" slope="0.00"/>
        <vehicle id="flow.4" x="299.14" y="0.00" angle="90.00" type="t1" speed="25.53" pos="299.14" lane="0_0" slope="0.00"/>
        <vehicle id="flow.5" x="264.45" y="0.00" angle="90.00" type="t1" speed="25.62" pos="264.45" lane="0_0" slope="0.00"/>
        <vehicle id="flow.6" x="230.38" y="0.00" angle="90.00" type="t1" speed="25.68" pos="230.38" lane="0_0" slope="0.00"/>
        <vehicle id="flow.7" x="196.90" y="0.00" angle="90.00" type="t1" speed="25.71" pos="196.90" lane="0_0" slope="0.00"/>
        <vehicle id="flow.8" x="162.57" y="0.00" angle="90.00" type="t1" speed="25.78" pos="162.57" lane="0_0" slope="0.00"/>
        <vehicle id="flow.9" x="128.15" y="0.00" angle="90.00" type="t1" speed="25.86" pos="128.15" lane="0_0" slope="0.00"/>
    </timestep>
    <timestep time="19.00">
        <vehicle id="first" x="399.97" y="0.00" angle="90.00" type="t0" speed="0.00" pos="399.97" lane="0_0" slope="0.00"/>
        <vehicle id="flow.0" x="392.34" y="0.00" angle="90.00" type="t1" speed="0.13" pos="392.34" lane="0_0" slope="0.00"/>
        <vehicle id="flow.1" x="376.36" y="0.00" angle="90.00" type="t1" speed="4.35" pos="376.36" lane="0_0" slope="0.00"/>
        <vehicle id="flow.2" x="364.28" y="0.00" angle="90.00" type="t1" speed="10.01" pos="364.28" lane="0_0" slope="0.00"/>
        <vehicle id="flow.3" x="346.46" y="0.00" angle="90.00" type="t1" speed="15.68" pos="346.46" lane="0_0" slope="0.00"/>
        <vehicle id="flow.4" x="323.19" y="0.00" angle="90.00" type="t1" speed="24.05" pos="323.19" lane="0_0" slope="0.00"/>
        <vehicle id="flow.5" x="290.06" y="0.00" angle="90.00" type="t1" speed="25.61" pos="290.06" lane="0_0" slope="0.00"/>
        <vehicle id="flow.6" x="256.04" y="0.00" angle="90.00" type="t1" speed="25.67" pos="256.04" lane="0_0" slope="0.00"/>
        <vehicle id="flow.7" x="222.59" y="0.00" angle="90.00" type="t1" speed="25.69" pos="222.59" lane="0_0" slope="0.00"/>
        <vehicle id="flow.8" x="188.33" y="0.00" angle="90.00" type="t1" speed="25.76" pos="188.33" lane="0_0" slope="0.00"/>
        <vehicle id="flow.9" x="153.99" y="0.00" angle="90.00" type="t1" speed="25.84" pos="153.99" lane="0_0" slope="0.00"/>
    </timestep>
    <timestep time="20.00">
        <vehicle id="first" x="399.97" y="0.00" angle="90.00" type="t0" speed="0.00" pos="399.97" lane="0_0" slope="0.00"/>
        <vehicle id="flow.0" x="392.44" y="0.00" angle="90.00" type="t1" speed="0.10" pos="392.44" lane="0_0" slope="0.00"/>
        <vehicle id="flow.1" x="377.50" y="0.00" angle="90.00" type="t1" speed="1.14" pos="377.50" lane="0_0" slope="0.00"/>
        <vehicle id="flow.2" x="368.64" y="0.00" angle="90.00" type="t1" speed="4.36" pos="368.64" lane="0_0" slope="0.00"/>
        <vehicle id="flow.3" x="356.55" y="0.00" angle="90.00" type="t1" speed="10.09" pos="356.55" lane="0_0" slope="0.00"/>
        <vehicle id="flow.4" x="338.69" y="0.00" angle="90.00" type="t1" speed="15.50" pos="338.69" lane="0_0" slope="0.00"/>
        <vehicle id="flow.5" x="314.42" y="0.00" angle="90.00" type="t1" speed="24.36" pos="314.42" lane="0_0" slope="0.00"/>
        <vehicle id="flow.6" x="281.70" y="0.00" angle="90.00" type="t1" speed="25.65" pos="281.70" lane="0_0" slope="0.00"/>
        <vehicle id="flow.7" x="248.28" y="0.00" angle="90.00" type="t1" speed="25.68" pos="248.28" lane="0_0" slope="0.00"/>
        <vehicle id="flow.8" x="214.08" y="0.00" angle="90.00" type="t1" speed="25.75" pos="214.08" lane="0_0" slope="0.00"/>
        <vehicle id="flow.9" x="179.81" y="0.00" angle="90.00" type="t1" speed="25.82" pos="179.81" lane="0_0" slope="0.00"/>
    </timestep>
    <timestep time="21.00">
        <vehicle id="first" x="399.97" y="0.00" angle="90.00" type="t0" speed="0.00" pos="399.97" lane="0_0" slope="0.00"/>
        <vehicle id="flow.0" x="392.46" y="0.00" angle="90.00" type="t1" speed="0.02" pos="392.46" lane="0_0" slope="0.00"/>
        <vehicle id="flow.1" x="378.06" y="0.00" angle="90.00" type="t1" speed="0.56" pos="378.06" lane="0_0" slope="0.00"/>
        <vehicle id="flow.2" x="369.86" y="0.00" angle="90.00" type="t1" speed="1.22" pos="369.86" lane="0_0" slope="0.00"/>
        <vehicle id="flow.3" x="360.92" y="0.00" angle="90.00" type="t1" speed="4.38" pos="360.92" lane="0_0" slope="0.00"/>
        <vehicle id="flow.4" x="348.83" y="0.00" angle="90.00" type="t1" speed="10.14" pos="348.83" lane="0_0" slope="0.00"/>
        <vehicle id="flow.5" x="330.67" y="0.00" angle="90.00" type="t1" speed="16.26" pos="330.67" lane="0_0" slope="0.00"/>
        <vehicle id="flow.6" x="306.71" y="0.00" angle="90.00" type="t1" speed="25.01" pos="306.71" lane="0_0" slope="0.00"/>
        <vehicle id="flow.7" x="273.94" y="0.00" angle="90.00" type="t1" speed="25.67" pos="273.94" lane="0_0" slope="0.00"/>
        <vehicle id="flow.8" x="239.81" y="0.00" angle="90.00" type="t1" speed="25.73" pos="239.81" lane="0_0" slope="0.00"/>
        <vehicle id="flow.9" x="205.61" y="0.00" angle="90.00" type="t1" speed="25.80" pos="205.61" lane="0_0" slope="0.00"/>
    </timestep>
    <timestep time="22.00">
        <vehicle id="first" x="399.97" y="0.00" angle="90.00" type="t0" speed="0.00" pos="399.97" lane="0_0" slope="0.00"/>
        <vehicle id="flow.0" x="392.46" y="0.00" angle="90.00" type="t1" speed="0.01" pos="392.46" lane="0_0" slope="0.00"/>
        <vehicle id="flow.1" x="378.44" y="0.00" angle="90.00" type="t1" speed="0.38" pos="378.44" lane="0_0" slope="0.00"/>
        <vehicle id="flow.2" x="370.51" y="0.00" angle="90.00" type="t1" speed="0.65" pos="370.51" lane="0_0" slope="0.00"/>
        <vehicle id="flow.3" x="362.22" y="0.00" angle="90.00" type="t1" speed="1.30" pos="362.22" lane="0_0" slope="0.00"/>
        <vehicle id="flow.4" x="353.21" y="0.00" angle="90.00" type="t1" speed="4.38" pos="353.21" lane="0_0" slope="0.00"/>
        <vehicle id="flow.5" x="341.04" y="0.00" angle="90.00" type="t1" speed="10.37" pos="341.04" lane="0_0" slope="0.00"/>
        <vehicle id="flow.6" x="322.87" y="0.00" angle="90.00" type="t1" speed="16.16" pos="322.87" lane="0_0" slope="0.00"/>
        <vehicle id="flow.7" x="299.14" y="0.00" angle="90.00" type="t1" speed="25.19" pos="299.14" lane="0_0" slope="0.00"/>
        <vehicle id="flow.8" x="265.53" y="0.00" angle="90.00" type="t1" speed="25.72" pos="265.53" lane="0_0" slope="0.00"/>
        <vehicle id="flow.9" x="231.39" y="0.00" angle="90.00" type="t1" speed="25.78" pos="231.39" lane="0_0" slope="0.00"/>
    </timestep>
    <timestep time="23.00">
        <vehicle id="first" x="399.97" y="0.00" angle="90.00" type="t0" speed="0.00" pos="399.97" lane="0_0" slope="0.00"/>
        <vehicle id="flow.0" x="392.47" y="0.00" angle="90.00" type="t1" speed="0.00" pos="392.47" lane="0_0" slope="0.00"/>
        <vehicle id="flow.1" x="378.77" y="0.00" angle="90.00" type="t1" speed="0.33" pos="378.77" lane="0_0" slope="0.00"/>
        <vehicle id="flow.2" x="370.92" y="0.00" angle="90.00" type="t1" speed="0.41" pos="370.92" lane="0_0" slope="0.00"/>
        <vehicle id="flow.3" x="362.96" y="0.00" angle="90.00" type="t1" speed="0.74" pos="362.96" lane="0_0" slope="0.00"/>
        <vehicle id="flow.4" x="354.59" y="0.00" angle="90.00" type="t1" speed="1.38" pos="354.59" lane="0_0" slope="0.00"/>
        <vehicle id="flow.5" x="345.47" y="0.00" angle="90.00" type="t1" speed="4.43" pos="345.47" lane="0_0" slope="0.00"/>
        <vehicle id="flow.6" x="333.31" y="0.00" angle="90.00" type="t1" speed="10.44" pos="333.31" lane="0_0" slope="0.00"/>
        <vehicle id="flow.7" x="315.33" y="0.00" angle="90.00" type="t1" speed="16.19" pos="315.33" lane="0_0" slope="0.00"/>
        <vehicle id="flow.8" x="290.84" y="0.00" angle="90.00" type="t1" speed="25.31" pos="290.84" lane="0_0" slope="0.00"/>
        <vehicle id="flow.9" x="257.16" y="0.00" angle="90.00" type="t1" speed="25.76" pos="257.16" lane="0_0" slope="0.00"/>
    </timestep>
    <timestep time="24.00">
        <vehicle id="first" x="399.97" y="0.00" angle="90.00" type="t0" speed="0.00" pos="399.97" lane="0_0" slope="0.00"/>
        <vehicle id="flow.0" x="392.47" y="0.00" angle="90.00" type="t1" speed="0.00" pos="392.47" lane="0_0" slope="0.00"/>
        <vehicle id="flow.1" x="379.07" y="0.00" angle="90.00" type="t1" speed="0.30" pos="379.07" lane="0_0" slope="0.00"/>
        <vehicle id="flow.2" x="371.26" y="0.00" angle="90.00" type="t1" speed="0.34" pos="371.26" lane="0_0" slope="0.00"/>
        <vehicle id="flow.3" x="363.40" y="0.00" angle="90.00" type="t1" speed="0.44" pos="363.40" lane="0_0" slope="0.00"/>
        <vehicle id="flow.4" x="355.42" y="0.00" angle="90.00" type="t1" speed="0.83" pos="355.42" lane="0_0" slope="0.00"/>
        <vehicle id="flow.5" x="346.95" y="0.00" angle="90.00" type="t1" speed="1.48" pos="346.95" lane="0_0" slope="0.00"/>
        <vehicle id="flow.6" x="337.74" y="0.00" angle="90.00" type="t1" speed="4.43" pos="337.74" lane="0_0" slope="0.00"/>
        <vehicle id="flow.7" x="325.63" y="0.00" angle="90.00" type="t1" speed="10.30" pos="325.63" lane="0_0" slope="0.00"/>
        <vehicle id="flow.8" x="307.40" y="0.00" angle="90.00" type="t1" speed="16.55" pos="307.40" lane="0_0" slope="0.00"/>
        <vehicle id="flow.9" x="282.58" y="0.00" angle="90.00" type="t1" speed="25.42" pos="282.58" lane="0_0" slope="0.00"/>
    </timestep>
    <timestep time="25.00">
        <vehicle id="first" x="399.97" y="0.00" angle="90.00" type="t0" speed="0.00" pos="399.97" lane="0_0" slope="0.00"/>
        <vehicle id="flow.0" x="392.47" y="0.00" angle="90.00" type="t1" speed="0.00" pos="392.47" lane="0_0" slope="0.00"/>
        <vehicle id="flow.1" x="379.35" y="0.00" angle="90.00" type="t1" speed="0.28" pos="379.35" lane="0_0" slope="0.00"/>
        <vehicle id="flow.2" x="371.57" y="0.00" angle="90.00" type="t1" speed="0.31" pos="371.57" lane="0_0" slope="0.00"/>
        <vehicle id="flow.3" x="363.75" y="0.00" angle="90.00" type="t1" speed="0.35" pos="363.75" lane="0_0" slope="0.00"/>
        <vehicle id="flow.4" x="355.88" y="0.00" angle="90.00" type="t1" speed="0.46" pos="355.88" lane="0_0" slope="0.00"/>
        <vehicle id="flow.5" x="347.87" y="0.00" angle="90.00" type="t1" speed="0.92" pos="347.87" lane="0_0" slope="0.00"/>
        <vehicle id="flow.6" x="339.31" y="0.00" angle="90.00" type="t1" speed="1.57" pos="339.31" lane="0_0" slope="0.00"/>
        <vehicle id="flow.7" x="330.03" y="0.00" angle="90.00" type="t1" speed="4.40" pos="330.03" lane="0_0" slope="0.00"/>
        <vehicle id="flow.8" x="317.85" y="0.00" angle="90.00" type="t1" speed="10.46" pos="317.85" lane="0_0" slope="0.00"/>
        <vehicle id="flow.9" x="299.48" y="0.00" angle="90.00" type="t1" speed="16.90" pos="299.48" lane="0_0" slope="0.00"/>
    </timestep>
    <timestep time="26.00">
        <vehicle id="first" x="399.97" y="0.00" angle="90.00" type="t0" speed="0.00" pos="399.97" lane="0_0" slope="0.00"/>
        <vehicle id="flow.0" x="392.47" y="0.00" angle="90.00" type="t1" speed="0.00" pos="392.47" lane="0_0" slope="0.00"/>
        <vehicle id="flow.1" x="379.62" y="0.00" angle="90.00" type="t1" speed="0.27" pos="379.62" lane="0_0" slope="0.00"/>
        <vehicle id="flow.2" x="371.85" y="0.00" angle="90.00" type="t1" speed="0.29" pos="371.85" lane="0_0" slope="0.00"/>
        <vehicle id="flow.3" x="364.06" y="0.00" angle="90.00" type="t1" speed="0.31" pos="364.06" lane="0_0" slope="0.00"/>
        <vehicle id="flow.4" x="356.25" y="0.00" angle="90.00" type="t1" speed="0.36" pos="356.25" lane="0_0" slope="0.00"/>
        <vehicle id="flow.5" x="348.36" y="0.00" angle="90.00" type="t1" speed="0.49" pos="348.36" lane="0_0" slope="0.00"/>
        <vehicle id="flow.6" x="340.32" y="0.00" angle="90.00" type="t1" speed="1.01" pos="340.32" lane="0_0" slope="0.00"/>
        <vehicle id="flow.7" x="331.69" y="0.00" angle="90.00" type="t1" speed="1.65" pos="331.69" lane="0_0" slope="0.00"/>