<?xml version="1.0"?>

<!-- generated on 02/28/08 12:41:03 by SUMO sumo Version 0.9.7
<configuration>

   <input>
      <net-file>three_split.net.xml</net-file>
      <additional-files>input_routes.rou.xml,input_additional.add.xml</additional-files>
   </input>

   <output>
      <vehroute-output>vehroutes.xml</vehroute-output>
   </output>

   <processing>
      <no-duration-log>true</no-duration-log>
      <no-step-log>true</no-step-log>
   </processing>

</configuration>
-->

<vehicleroutes>
   <vehicle id="0" emittedAt="0" endedAt="77">
      <route>beg middle end rend</route>
   </vehicle>

   <vehicle id="1" emittedAt="20" endedAt="83">
      <route>beg middle end rend</route>
   </vehicle>

   <vehicle id="2" emittedAt="40" endedAt="117">
      <route>beg middle end rend</route>
   </vehicle>

   <vehicle id="6" emittedAt="120" endedAt="197">
      <route>beg middle end rend</route>
   </vehicle>

   <vehicle id="7" emittedAt="140" endedAt="203">
      <route>beg middle end rend</route>
   </vehicle>

   <vehicle id="3" emittedAt="60" endedAt="213">
      <route replacedOnEdge="beg"  replacedAtTime="60">beg middle end rend</route>

      <route>beg beg2left left left2end end</route>
   </vehicle>

   <vehicle id="8" emittedAt="160" endedAt="237">
      <route>beg middle end rend</route>
   </vehicle>

   <vehicle id="9" emittedAt="180" endedAt="243">
      <route>beg middle end rend</route>
   </vehicle>

   <vehicle id="4" emittedAt="80" endedAt="248">
      <route replacedOnEdge="beg"  replacedAtTime="80">beg middle end rend</route>

      <route>beg beg2left left left2end end</route>
   </vehicle>

   <vehicle id="5" emittedAt="100" endedAt="253">
      <route replacedOnEdge="beg"  replacedAtTime="100">beg middle end rend</route>

      <route>beg beg2right right right2end end</route>
   </vehicle>

</vehicleroutes>
