<?xml version="1.0" encoding="UTF-8"?>

<!-- generated on 2026-03-14T09:43:53.875799+01:00 by Eclipse SUMO sumo v1_26_0+0588-d6d4e06ecd2
This data file and the accompanying materials
are made available under the terms of the Eclipse Public License v2.0
which accompanies this distribution, and is available at
http://www.eclipse.org/legal/epl-v20.html
This file may also be made available under the following Secondary
Licenses when the conditions for such availability set forth in the Eclipse
Public License 2.0 are satisfied: GNU General Public License, version 2
or later which is available at
https://www.gnu.org/licenses/old-licenses/gpl-2.0-standalone.html
SPDX-License-Identifier: EPL-2.0 OR GPL-2.0-or-later
<sumoConfiguration xmlns:xsi="http://www.w3.org/2001/XMLSchema-instance" xsi:noNamespaceSchemaLocation="http://sumo.dlr.de/xsd/sumoConfiguration.xsd">

    <input>
        <net-file value="net.net.xml"/>
        <route-files value="input_routes.rou.xml"/>
    </input>

    <output>
        <write-license value="true"/>
        <fcd-output value="fcd.xml"/>
        <fcd-output.attributes value="speed,pos,lane,edge,posLat,speedLat"/>
    </output>

    <processing>
        <lateral-resolution value="1.6"/>
        <default.speeddev value="0"/>
    </processing>

    <report>
        <xml-validation value="never"/>
        <no-step-log value="true"/>
    </report>

</sumoConfiguration>
-->

<fcd-export xmlns:xsi="http://www.w3.org/2001/XMLSchema-instance" xsi:noNamespaceSchemaLocation="http://sumo.dlr.de/xsd/fcd_file.xsd">
    <timestep time="0.00">
        <vehicle id="v0" speed="0.00" pos="5.10" lane="WC_1" posLat="1.20" speedLat="0.00"/>
        <vehicle id="v1" speed="0.00" pos="5.10" lane="EC_1" posLat="1.20" speedLat="0.00"/>
    </timestep>
    <timestep time="1.00">
        <vehicle id="v0" speed="1.75" pos="6.85" lane="WC_1" posLat="0.20" speedLat="-1.00"/>
        <vehicle id="v1" speed="1.67" pos="6.77" lane="EC_1" posLat="0.20" speedLat="-1.00"/>
    </timestep>
    <timestep time="2.00">
        <vehicle id="v0" speed="3.97" pos="10.82" lane="WC_1" posLat="0.00" speedLat="-0.20"/>
        <vehicle id="v1" speed="3.56" pos="10.32" lane="EC_1" posLat="0.00" speedLat="-0.20"/>
    </timestep>
    <timestep time="3.00">
        <vehicle id="v0" speed="5.65" pos="16.47" lane="WC_1" posLat="0.00" speedLat="0.00"/>
        <vehicle id="v1" speed="5.41" pos="15.73" lane="EC_1" posLat="0.00" speedLat="0.00"/>
    </timestep>
    <timestep time="4.00">
        <vehicle id="v0" speed="7.71" pos="24.18" lane="WC_1" posLat="0.00" speedLat="0.00"/>
        <vehicle id="v1" speed="6.88" pos="22.61" lane="EC_1" posLat="0.00" speedLat="0.00"/>
    </timestep>
    <timestep time="5.00">
        <vehicle id="v0" speed="9.50" pos="33.68" lane="WC_1" posLat="0.00" speedLat="0.00"/>
        <vehicle id="v1" speed="9.36" pos="31.97" lane="EC_1" posLat="0.00" speedLat="0.00"/>
    </timestep>
    <timestep time="6.00">
        <vehicle id="v0" speed="10.96" pos="44.64" lane="WC_1" posLat="0.00" speedLat="0.00"/>
        <vehicle id="v1" speed="11.26" pos="43.24" lane="EC_1" posLat="0.00" speedLat="0.00"/>
    </timestep>
    <timestep time="7.00">
        <vehicle id="v0" speed="12.74" pos="57.38" lane="WC_1" posLat="0.00" speedLat="0.00"/>
        <vehicle id="v1" speed="13.86" pos="57.09" lane="EC_1" posLat="0.00" speedLat="0.00"/>
    </timestep>
    <timestep time="8.00">
        <vehicle id="v0" speed="13.25" pos="70.63" lane="WC_1" posLat="0.00" speedLat="0.00"/>
        <vehicle id="v1" speed="13.80" pos="70.90" lane="EC_1" posLat="0.00" speedLat="0.00"/>
    </timestep>
    <timestep time="9.00">
        <vehicle id="v0" speed="11.07" pos="81.69" lane="WC_1" posLat="0.00" speedLat="0.00"/>
        <vehicle id="v1" speed="12.92" pos="83.81" lane="EC_1" posLat="0.00" speedLat="0.00"/>
    </timestep>
    <timestep time="10.00">
        <vehicle id="v0" speed="7.17" pos="88.87" lane="WC_1" posLat="0.00" speedLat="0.00"/>
        <vehicle id="v1" speed="13.46" pos="7.67" lane=":C_5_0" posLat="0.00" speedLat="0.00"/>
    </timestep>
    <timestep time="11.00">
        <vehicle id="v0" speed="4.08" pos="3.35" lane=":C_12_0" posLat="0.00" speedLat="0.00"/>
        <vehicle id="v1" speed="13.78" pos="0.65" lane="CW_1" posLat="0.00" speedLat="0.00"/>
    </timestep>
    <timestep time="12.00">
        <vehicle id="v0" speed="6.40" pos="0.72" lane="CS_1" posLat="0.00" speedLat="0.00"/>
        <vehicle id="v1" speed="13.65" pos="14.30" lane="CW_1" posLat="0.00" speedLat="0.00"/>
    </timestep>
    <timestep time="13.00">
        <vehicle id="v0" speed="7.79" pos="8.50" lane="CS_1" posLat="0.00" speedLat="0.00"/>
        <vehicle id="v1" speed="12.65" pos="26.96" lane="CW_1" posLat="0.00" speedLat="0.00"/>
    </timestep>
    <timestep time="14.00">
        <vehicle id="v0" speed="9.47" pos="17.97" lane="CS_1" posLat="0.00" speedLat="0.00"/>
        <vehicle id="v1" speed="12.91" pos="39.86" lane="CW_1" posLat="0.00" speedLat="0.00"/>
    </timestep>
    <timestep time="15.00">
        <vehicle id="v0" speed="11.19" pos="29.16" lane="CS_1" posLat="0.00" speedLat="0.00"/>
        <vehicle id="v1" speed="13.02" pos="52.88" lane="CW_1" posLat="0.00" speedLat="0.00"/>
    </timestep>
    <timestep time="16.00">
        <vehicle id="v0" speed="13.07" pos="42.23" lane="CS_1" posLat="0.00" speedLat="0.00"/>
        <vehicle id="v1" speed="13.02" pos="65.91" lane="CW_1" posLat="0.00" speedLat="0.00"/>
    </timestep>
    <timestep time="17.00">
        <vehicle id="v0" speed="12.71" pos="54.94" lane="CS_1" posLat="0.00" speedLat="0.00"/>
        <vehicle id="v1" speed="13.56" pos="79.47" lane="CW_1" posLat="0.00" speedLat="0.00"/>
    </timestep>
    <timestep time="18.00">
        <vehicle id="v0" speed="13.39" pos="68.32" lane="CS_1" posLat="0.00" speedLat="0.00"/>
    </timestep>
    <timestep time="19.00">
        <vehicle id="v0" speed="13.79" pos="82.12" lane="CS_1" posLat="0.00" speedLat="0.00"/>
    </timestep>
    <timestep time="20.00"/>
</fcd-export>
