<?xml version="1.0" encoding="UTF-8"?>

<!-- generated on Mon Mar  3 10:27:04 2014 by SUMO sumo Version dev-SVN-r15793
<?xml version="1.0" encoding="UTF-8"?>

<configuration xmlns:xsi="http://www.w3.org/2001/XMLSchema-instance" xsi:noNamespaceSchemaLocation="http://sumo-sim.org/xsd/sumoConfiguration.xsd">

    <input>
        <net-file value="net.net.xml"/>
        <additional-files value="input_routes.rou.xml,input_additional2.add.xml"/>
    </input>

    <output>
        <netstate-dump value="rawdump.xml"/>
    </output>

    <time>
        <begin value="0"/>
        <end value="1000"/>
    </time>

    <report>
        <xml-validation value="never"/>
        <no-duration-log value="true"/>
        <no-step-log value="true"/>
    </report>

</configuration>
-->

<netstate xmlns:xsi="http://www.w3.org/2001/XMLSchema-instance" xsi:noNamespaceSchemaLocation="http://sumo-sim.org/xsd/netstate_file.xsd">
    <timestep time="0.00">
        <edge id="4/1to3/1">
            <lane id="4/1to3/1_0">
                <vehicle id="0" pos="100.00" speed="10.00"/>
            </lane>
        </edge>
    </timestep>
    <timestep time="1.00">
        <edge id="4/1to3/1">
            <lane id="4/1to3/1_0">
                <vehicle id="0" pos="110.00" speed="10.00"/>
            </lane>
        </edge>
    </timestep>
    <timestep time="2.00">
        <edge id="4/1to3/1">
            <lane id="4/1to3/1_0">
                <vehicle id="0" pos="120.00" speed="10.00"/>
            </lane>
        </edge>
    </timestep>
    <timestep time="3.00">
        <edge id="4/1to3/1">
            <lane id="4/1to3/1_0">
                <vehicle id="0" pos="130.00" speed="10.00"/>
            </lane>
        </edge>
    </timestep>
    <timestep time="4.00">
        <edge id="4/1to3/1">
            <lane id="4/1to3/1_0">
                <vehicle id="0" pos="140.00" speed="10.00"/>
            </lane>
        </edge>
    </timestep>
    <timestep time="5.00">
        <edge id="4/1to3/1">
            <lane id="4/1to3/1_0">
                <vehicle id="1" pos="100.00" speed="9.00"/>
                <vehicle id="0" pos="150.00" speed="10.00"/>
            </lane>
        </edge>
    </timestep>
    <timestep time="6.00">
        <edge id="4/1to3/1">
            <lane id="4/1to3/1_0">
                <vehicle id="1" pos="109.00" speed="9.00"/>
                <vehicle id="0" pos="160.00" speed="10.00"/>
            </lane>
        </edge>
    </timestep>
    <timestep time="7.00">
        <edge id="4/1to3/1">
            <lane id="4/1to3/1_0">
                <vehicle id="1" pos="118.00" speed="9.00"/>
                <vehicle id="0" pos="170.00" speed="10.00"/>
            </lane>
        </edge>
    </timestep>
    <timestep time="8.00">
        <edge id="4/1to3/1">
            <lane id="4/1to3/1_0">
                <vehicle id="1" pos="127.00" speed="9.00"/>
                <vehicle id="0" pos="180.00" speed="10.00"/>
            </lane>
        </edge>
    </timestep>
    <timestep time="9.00">
        <edge id="4/1to3/1">
            <lane id="4/1to3/1_0">
                <vehicle id="1" pos="136.00" speed="9.00"/>
                <vehicle id="0" pos="190.00" speed="10.00"/>
            </lane>
        </edge>
    </timestep>
    <timestep time="10.00">
        <edge id="4/1to3/1">
            <lane id="4/1to3/1_0">
                <vehicle id="1" pos="145.00" speed="9.00"/>
                <vehicle id="0" pos="200.00" speed="10.00"/>
            </lane>
        </edge>
    </timestep>
    <timestep time="11.00">
        <edge id="4/1to3/1">
            <lane id="4/1to3/1_0">
                <vehicle id="1" pos="154.00" speed="9.00"/>
                <vehicle id="0" pos="210.00" speed="10.00"/>
            </lane>
        </edge>
    </timestep>
    <timestep time="12.00">
        <edge id="4/1to3/1">
            <lane id="4/1to3/1_0">
                <vehicle id="1" pos="163.00" speed="9.00"/>
                <vehicle id="0" pos="220.00" speed="10.00"/>
            </lane>
        </edge>
    </timestep>
    <timestep time="13.00">
        <edge id="4/1to3/1">
            <lane id="4/1to3/1_0">
                <vehicle id="1" pos="172.00" speed="9.00"/>
                <vehicle id="0" pos="230.00" speed="10.00"/>
            </lane>
        </edge>
    </timestep>
    <timestep time="14.00">
        <edge id="4/1to3/1">
            <lane id="4/1to3/1_0">
                <vehicle id="1" pos="181.00" speed="9.00"/>
                <vehicle id="0" pos="240.00" speed="10.00"/>
            </lane>
        </edge>
    </timestep>
    <timestep time="15.00">
        <edge id="4/1to3/1">
            <lane id="4/1to3/1_0">
                <vehicle id="1" pos="190.00" speed="9.00"/>
                <vehicle id="0" pos="250.00" speed="10.00"/>
            </lane>
        </edge>
    </timestep>
    <timestep time="16.00">
        <edge id="4/1to3/1">
            <lane id="4/1to3/1_0">
                <vehicle id="1" pos="199.00" speed="9.00"/>
                <vehicle id="0" pos="260.00" speed="10.00"/>
            </lane>
        </edge>
    </timestep>
    <timestep time="17.00">
        <edge id="4/1to3/1">
            <lane id="4/1to3/1_0">
                <vehicle id="1" pos="208.00" speed="9.00"/>
                <vehicle id="0" pos="270.00" speed="10.00"/>
            </lane>
        </edge>
    </timestep>
    <timestep time="18.00">
        <edge id="4/1to3/1">
            <lane id="4/1to3/1_0">
                <vehicle id="1" pos="217.00" speed="9.00"/>
                <vehicle id="0" pos="280.00" speed="10.00"/>
            </lane>
        </edge>
    </timestep>
    <timestep time="19.00">
        <edge id="4/1to3/1">
            <lane id="4/1to3/1_0">
                <vehicle id="1" pos="226.00" speed="9.00"/>
                <vehicle id="0" pos="290.00" speed="10.00"/>
            </lane>
        </edge>
    </timestep>
    <timestep time="20.00">
        <edge id="4/1to3/1">
            <lane id="4/1to3/1_0">
                <vehicle id="1" pos="235.00" speed="9.00"/>
                <vehicle id="0" pos="300.00" speed="10.00"/>
            </lane>
        </edge>
    </timestep>
    <timestep time="21.00">
        <edge id="4/1to3/1">
            <lane id="4/1to3/1_0">
                <vehicle id="1" pos="244.00" speed="9.00"/>
                <vehicle id="0" pos="310.00" speed="10.00"/>
            </lane>
        </edge>
    </timestep>
    <timestep time="22.00">
        <edge id="4/1to3/1">
            <lane id="4/1to3/1_0">
                <vehicle id="1" pos="253.00" speed="9.00"/>
                <vehicle id="0" pos="320.00" speed="10.00"/>
            </lane>
        </edge>
    </timestep>
    <timestep time="23.00">
        <edge id="4/1to3/1">
            <lane id="4/1to3/1_0">
                <vehicle id="1" pos="262.00" speed="9.00"/>
                <vehicle id="0" pos="330.00" speed="10.00"/>
            </lane>
        </edge>
    </timestep>
    <timestep time="24.00">
        <edge id="4/1to3/1">
            <lane id="4/1to3/1_0">
                <vehicle id="1" pos="271.00" speed="9.00"/>
                <vehicle id="0" pos="340.00" speed="10.00"/>
            </lane>
        </edge>
    </timestep>
    <timestep time="25.00">
        <edge id="4/1to3/1">
            <lane id="4/1to3/1_0">
                <vehicle id="1" pos="280.00" speed="9.00"/>
                <vehicle id="0" pos="350.00" speed="10.00"/>
            </lane>
        </edge>
    </timestep>
    <timestep time="26.00">
        <edge id="4/1to3/1">
            <lane id="4/1to3/1_0">
                <vehicle id="1" pos="289.00" speed="9.00"/>
                <vehicle id="0" pos="360.00" speed="10.00"/>
            </lane>
        </edge>
    </timestep>
    <timestep time="27.00">
        <edge id="4/1to3/1">
            <lane id="4/1to3/1_0">
                <vehicle id="1" pos="298.00" speed="9.00"/>
                <vehicle id="0" pos="370.00" speed="10.00"/>
            </lane>
        </edge>
    </timestep>
    <timestep time="28.00">
        <edge id="4/1to3/1">
            <lane id="4/1to3/1_0">
                <vehicle id="1" pos="307.00" speed="9.00"/>
                <vehicle id="0" pos="380.00" speed="10.00"/>
            </lane>
        </edge>
    </timestep>
    <timestep time="29.00">
        <edge id="4/1to3/1">
            <lane id="4/1to3/1_0">
                <vehicle id="1" pos="316.00" speed="9.00"/>
                <vehicle id="0" pos="390.00" speed="10.00"/>
            </lane>
        </edge>
    </timestep>
    <timestep time="30.00">
        <edge id="4/1to3/1">
            <lane id="4/1to3/1_0">
                <vehicle id="1" pos="325.00" speed="9.00"/>
                <vehicle id="0" pos="400.00" speed="10.00"/>
            </lane>
        </edge>
    </timestep>
    <timestep time="31.00">
        <edge id="3/1to2/1">
            <lane id="3/1to2/1_0">
                <vehicle id="0" pos="10.00" speed="10.00"/>
            </lane>
        </edge>
        <edge id="4/1to3/1">
            <lane id="4/1to3/1_0">
                <vehicle id="1" pos="334.00" speed="9.00"/>
            </lane>
        </edge>
    </timestep>
    <timestep time="32.00">
        <edge id="3/1to2/1">
            <lane id="3/1to2/1_0">
                <vehicle id="0" pos="20.00" speed="10.00"/>
            </lane>
        </edge>
        <edge id="4/1to3/1">
            <lane id="4/1to3/1_0">
                <vehicle id="1" pos="343.00" speed="9.00"/>
            </lane>
        </edge>
    </timestep>
    <timestep time="33.00">
        <edge id="3/1to2/1">
            <lane id="3/1to2/1_0">
                <vehicle id="0" pos="30.00" speed="10.00"/>
            </lane>
        </edge>
        <edge id="4/1to3/1">
            <lane id="4/1to3/1_0">
                <vehicle id="1" pos="352.00" speed="9.00"/>
            </lane>
        </edge>
    </timestep>
    <timestep time="34.00">
        <edge id="3/1to2/1">
            <lane id="3/1to2/1_0">
                <vehicle id="0" pos="40.00" speed="10.00"/>
            </lane>
        </edge>
        <edge id="4/1to3/1">
            <lane id="4/1to3/1_0">
                <vehicle id="1" pos="361.00" speed="9.00"/>
            </lane>
        </edge>
    </timestep>
    <timestep time="35.00">
        <edge id="3/1to2/1">
            <lane id="3/1to2/1_0">
                <vehicle id="0" pos="50.00" speed="10.00"/>
            </lane>
        </edge>
        <edge id="4/1to3/1">
            <lane id="4/1to3/1_0">
                <vehicle id="1" pos="370.00" speed="9.00"/>
            </lane>
        </edge>
    </timestep>
    <timestep time="36.00">
        <edge id="3/1to2/1">
            <lane id="3/1to2/1_0">
                <vehicle id="0" pos="60.00" speed="10.00"/>
            </lane>
        </edge>
        <edge id="4/1to3/1">
            <lane id="4/1to3/1_0">
                <vehicle id="1" pos="379.00" speed="9.00"/>
            </lane>
        </edge>
    </timestep>
    <timestep time="37.00">
        <edge id="3/1to2/1">
            <lane id="3/1to2/1_0">
                <vehicle id="0" pos="70.00" speed="10.00"/>
            </lane>
        </edge>
        <edge id="4/1to3/1">
            <lane id="4/1to3/1_0">
                <vehicle id="1" pos="388.00" speed="9.00"/>
            </lane>
        </edge>
    </timestep>
    <timestep time="38.00">
        <edge id="3/1to2/1">
            <lane id="3/1to2/1_0">
                <vehicle id="0" pos="80.00" speed="10.00"/>
            </lane>
        </edge>
        <edge id="4/1to3/1">
            <lane id="4/1to3/1_0">
                <vehicle id="1" pos="397.00" speed="9.00"/>
            </lane>
        </edge>
    </timestep>
    <timestep time="39.00">
        <edge id="3/1to2/1">
            <lane id="3/1to2/1_0">
                <vehicle id="1" pos="6.00" speed="9.00"/>
                <vehicle id="0" pos="90.00" speed="10.00"/>
            </lane>
        </edge>
    </timestep>
    <timestep time="40.00">
        <edge id="3/1to2/1">
            <lane id="3/1to2/1_0">
                <vehicle id="1" pos="15.00" speed="9.00"/>
                <vehicle id="0" pos="100.00" speed="10.00"/>
            </lane>
        </edge>
    </timestep>
    <timestep time="41.00">
        <edge id="3/1to2/1">
            <lane id="3/1to2/1_0">
                <vehicle id="1" pos="24.00" speed="9.00"/>
                <vehicle id="0" pos="110.00" speed="10.00"/>
            </lane>
        </edge>
    </timestep>
    <timestep time="42.00">
        <edge id="3/1to2/1">
            <lane id="3/1to2/1_0">
                <vehicle id="1" pos="33.00" speed="9.00"/>
                <vehicle id="0" pos="120.00" speed="10.00"/>
            </lane>
        </edge>
    </timestep>
    <timestep time="43.00">
        <edge id="3/1to2/1">
            <lane id="3/1to2/1_0">
                <vehicle id="1" pos="42.00" speed="9.00"/>
                <vehicle id="0" pos="130.00" speed="10.00"/>
            </lane>
        </edge>
    </timestep>
    <timestep time="44.00">
        <edge id="3/1to2/1">
            <lane id="3/1to2/1_0">
                <vehicle id="1" pos="51.00" speed="9.00"/>
                <vehicle id="0" pos="140.00" speed="10.00"/>
            </lane>
        </edge>
    </timestep>
    <timestep time="45.00">
        <edge id="3/1to2/1">
            <lane id="3/1to2/1_0">
                <vehicle id="1" pos="60.00" speed="9.00"/>
                <vehicle id="0" pos="150.00" speed="10.00"/>
            </lane>
        </edge>
    </timestep>
    <timestep time="46.00">
        <edge id="3/1to2/1">
            <lane id="3/1to2/1_0">
                <vehicle id="1" pos="69.00" speed="9.00"/>
                <vehicle id="0" pos="160.00" speed="10.00"/>
            </lane>
        </edge>
    </timestep>
    <timestep time="47.00">
        <edge id="3/1to2/1">
            <lane id="3/1to2/1_0">
                <vehicle id="1" pos="78.00" speed="9.00"/>
                <vehicle id="0" pos="170.00" speed="10.00"/>
            </lane>
        </edge>
    </timestep>
    <timestep time="48.00">
        <edge id="3/1to2/1">
            <lane id="3/1to2/1_0">
                <vehicle id="1" pos="87.00" speed="9.00"/>
                <vehicle id="0" pos="180.00" speed="10.00"/>
            </lane>
        </edge>
    </timestep>
    <timestep time="49.00">
        <edge id="3/1to2/1">
            <lane id="3/1to2/1_0">
                <vehicle id="1" pos="96.00" speed="9.00"/>
                <vehicle id="0" pos="190.00" speed="10.00"/>
            </lane>
        </edge>
    </timestep>
    <timestep time="50.00">
        <edge id="3/1to2/1">
            <lane id="3/1to2/1_0">
                <vehicle id="1" pos="105.00" speed="9.00"/>
                <vehicle id="0" pos="200.00" speed="10.00"/>
            </lane>
        </edge>
    </timestep>
    <timestep time="51.00">
        <edge id="3/1to2/1">
            <lane id="3/1to2/1_0">
                <vehicle id="1" pos="114.00" speed="9.00"/>
                <vehicle id="0" pos="210.00" speed="10.00"/>
            </lane>
        </edge>
    </timestep>
    <timestep time="52.00">
        <edge id="3/1to2/1">
            <lane id="3/1to2/1_0">
                <vehicle id="1" pos="123.00" speed="9.00"/>
                <vehicle id="0" pos="220.00" speed="10.00"/>
            </lane>
        </edge>
    </timestep>
    <timestep time="53.00">
        <edge id="3/1to2/1">
            <lane id="3/1to2/1_0">
                <vehicle id="1" pos="132.00" speed="9.00"/>
                <vehicle id="0" pos="230.00" speed="10.00"/>
            </lane>
        </edge>
    </timestep>
    <timestep time="54.00">
        <edge id="3/1to2/1">
            <lane id="3/1to2/1_0">
                <vehicle id="1" pos="141.00" speed="9.00"/>
                <vehicle id="0" pos="240.00" speed="10.00"/>
            </lane>
        </edge>
    </timestep>
    <timestep time="55.00">
        <edge id="3/1to2/1">
            <lane id="3/1to2/1_0">
                <vehicle id="1" pos="150.00" speed="9.00"/>
                <vehicle id="0" pos="250.00" speed="10.00"/>
            </lane>
        </edge>
    </timestep>
    <timestep time="56.00">
        <edge id="3/1to2/1">
            <lane id="3/1to2/1_0">
                <vehicle id="1" pos="159.00" speed="9.00"/>
                <vehicle id="0" pos="260.00" speed="10.00"/>
            </lane>
        </edge>
    </timestep>
    <timestep time="57.00">
        <edge id="3/1to2/1">
            <lane id="3/1to2/1_0">
                <vehicle id="1" pos="168.00" speed="9.00"/>
                <vehicle id="0" pos="270.00" speed="10.00"/>
            </lane>
        </edge>
    </timestep>
    <timestep time="58.00">
        <edge id="3/1to2/1">
            <lane id="3/1to2/1_0">
                <vehicle id="1" pos="177.00" speed="9.00"/>
                <vehicle id="0" pos="280.00" speed="10.00"/>
            </lane>
        </edge>
    </timestep>
    <timestep time="59.00">
        <edge id="3/1to2/1">
            <lane id="3/1to2/1_0">
                <vehicle id="1" pos="186.00" speed="9.00"/>
                <vehicle id="0" pos="290.00" speed="10.00"/>
            </lane>
        </edge>
    </timestep>
    <timestep time="60.00">
        <edge id="3/1to2/1">
            <lane id="3/1to2/1_0">
                <vehicle id="1" pos="195.00" speed="9.00"/>
                <vehicle id="0" pos="300.00" speed="10.00"/>
            </lane>
        </edge>
    </timestep>
    <timestep time="61.00">
        <edge id="3/1to2/1">
            <lane id="3/1to2/1_0">
                <vehicle id="1" pos="204.00" speed="9.00"/>
                <vehicle id="0" pos="310.00" speed="10.00"/>
            </lane>
        </edge>
    </timestep>
    <timestep time="62.00">
        <edge id="3/1to2/1">
            <lane id="3/1to2/1_0">
                <vehicle id="1" pos="213.00" speed="9.00"/>
                <vehicle id="0" pos="320.00" speed="10.00"/>
            </lane>
        </edge>
    </timestep>
    <timestep time="63.00">
        <edge id="3/1to2/1">
            <lane id="3/1to2/1_0">
                <vehicle id="1" pos="222.00" speed="9.00"/>
                <vehicle id="0" pos="330.00" speed="10.00"/>
            </lane>
        </edge>
    </timestep>
    <timestep time="64.00">
        <edge id="3/1to2/1">
            <lane id="3/1to2/1_0">
                <vehicle id="1" pos="231.00" speed="9.00"/>
                <vehicle id="0" pos="340.00" speed="10.00"/>
            </lane>
        </edge>
    </timestep>
    <timestep time="65.00">
        <edge id="3/1to2/1">
            <lane id="3/1to2/1_0">
                <vehicle id="1" pos="240.00" speed="9.00"/>
                <vehicle id="0" pos="350.00" speed="10.00"/>
            </lane>
        </edge>
    </timestep>
    <timestep time="66.00">
        <edge id="3/1to2/1">
            <lane id="3/1to2/1_0">
                <vehicle id="1" pos="249.00" speed="9.00"/>
                <vehicle id="0" pos="360.00" speed="10.00"/>
            </lane>
        </edge>
    </timestep>
    <timestep time="67.00">
        <edge id="3/1to2/1">
            <lane id="3/1to2/1_0">
                <vehicle id="1" pos="258.00" speed="9.00"/>
                <vehicle id="0" pos="370.00" speed="10.00"/>
            </lane>
        </edge>
    </timestep>
    <timestep time="68.00">
        <edge id="3/1to2/1">
            <lane id="3/1to2/1_0">
                <vehicle id="1" pos="267.00" speed="9.00"/>
                <vehicle id="0" pos="380.00" speed="10.00"/>
            </lane>
        </edge>
    </timestep>
    <timestep time="69.00">
        <edge id="3/1to2/1">
            <lane id="3/1to2/1_0">
                <vehicle id="1" pos="276.00" speed="9.00"/>
                <vehicle id="0" pos="390.00" speed="10.00"/>
            </lane>
        </edge>
    </timestep>
    <timestep time="70.00">
        <edge id="3/1to2/1">
            <lane id="3/1to2/1_0">
                <vehicle id="1" pos="285.00" speed="9.00"/>
                <vehicle id="0" pos="400.00" speed="10.00"/>
            </lane>
        </edge>
    </timestep>
    <timestep time="71.00">
        <edge id="2/1to1/1">
            <lane id="2/1to1/1_0">
                <vehicle id="0" pos="10.00" speed="10.00"/>
            </lane>
        </edge>
        <edge id="3/1to2/1">
            <lane id="3/1to2/1_0">
                <vehicle id="1" pos="294.00" speed="9.00"/>
            </lane>
        </edge>
    </timestep>
    <timestep time="72.00">
        <edge id="2/1to1/1">
            <lane id="2/1to1/1_0">
                <vehicle id="0" pos="20.00" speed="10.00"/>
            </lane>
        </edge>
        <edge id="3/1to2/1">
            <lane id="3/1to2/1_0">
                <vehicle id="1" pos="303.00" speed="9.00"/>
            </lane>
        </edge>
    </timestep>
    <timestep time="73.00">
        <edge id="2/1to1/1">
            <lane id="2/1to1/1_0">
                <vehicle id="0" pos="30.00" speed="10.00"/>
            </lane>
        </edge>
        <edge id="3/1to2/1">
            <lane id="3/1to2/1_0">
                <vehicle id="1" pos="312.00" speed="9.00"/>
            </lane>
        </edge>
    </timestep>
    <timestep time="74.00">
        <edge id="2/1to1/1">
            <lane id="2/1to1/1_0">
                <vehicle id="0" pos="40.00" speed="10.00"/>
            </lane>
        </edge>
        <edge id="3/1to2/1">
            <lane id="3/1to2/1_0">
                <vehicle id="1" pos="321.00" speed="9.00"/>
            </lane>
        </edge>
    </timestep>
    <timestep time="75.00">
        <edge id="2/1to1/1">
            <lane id="2/1to1/1_0">
                <vehicle id="0" pos="50.00" speed="10.00"/>
            </lane>
        </edge>
        <edge id="3/1to2/1">
            <lane id="3/1to2/1_0">
                <vehicle id="1" pos="330.00" speed="9.00"/>
            </lane>
        </edge>
    </timestep>
    <timestep time="76.00">
        <edge id="2/1to1/1">
            <lane id="2/1to1/1_0">
                <vehicle id="0" pos="60.00" speed="10.00"/>
            </lane>
        </edge>
        <edge id="3/1to2/1">
            <lane id="3/1to2/1_0">
                <vehicle id="1" pos="339.00" speed="9.00"/>
            </lane>
        </edge>
    </timestep>
    <timestep time="77.00">
        <edge id="2/1to1/1">
            <lane id="2/1to1/1_0">
                <vehicle id="0" pos="70.00" speed="10.00"/>
            </lane>
        </edge>
        <edge id="3/1to2/1">
            <lane id="3/1to2/1_0">
                <vehicle id="1" pos="348.00" speed="9.00"/>
            </lane>
        </edge>
    </timestep>
    <timestep time="78.00">
        <edge id="2/1to1/1">
            <lane id="2/1to1/1_0">
                <vehicle id="0" pos="80.00" speed="10.00"/>
            </lane>
        </edge>
        <edge id="3/1to2/1">
            <lane id="3/1to2/1_0">
                <vehicle id="1" pos="357.00" speed="9.00"/>
            </lane>
        </edge>
    </timestep>
    <timestep time="79.00">
        <edge id="2/1to1/1">
            <lane id="2/1to1/1_0">
                <vehicle id="0" pos="90.00" speed="10.00"/>
            </lane>
        </edge>
        <edge id="3/1to2/1">
            <lane id="3/1to2/1_0">
                <vehicle id="1" pos="366.00" speed="9.00"/>
            </lane>
        </edge>
    </timestep>
    <timestep time="80.00">
        <edge id="2/1to1/1">
            <lane id="2/1to1/1_0">
                <vehicle id="0" pos="100.00" speed="10.00"/>
            </lane>
        </edge>
        <edge id="3/1to2/1">
            <lane id="3/1to2/1_0">
                <vehicle id="1" pos="375.00" speed="9.00"/>
            </lane>
        </edge>
    </timestep>
    <timestep time="81.00">
        <edge id="2/1to1/1">
            <lane id="2/1to1/1_0">
                <vehicle id="0" pos="110.00" speed="10.00"/>
            </lane>
        </edge>
        <edge id="3/1to2/1">
            <lane id="3/1to2/1_0">
                <vehicle id="1" pos="384.00" speed="9.00"/>
            </lane>
        </edge>
    </timestep>
    <timestep time="82.00">
        <edge id="2/1to1/1">
            <lane id="2/1to1/1_0">
                <vehicle id="0" pos="120.00" speed="10.00"/>
            </lane>
        </edge>
        <edge id="3/1to2/1">
            <lane id="3/1to2/1_0">
                <vehicle id="1" pos="393.00" speed="9.00"/>
            </lane>
        </edge>
    </timestep>
    <timestep time="83.00">
        <edge id="2/1to1/1">
            <lane id="2/1to1/1_0">
                <vehicle id="1" pos="2.00" speed="9.00"/>
                <vehicle id="0" pos="130.00" speed="10.00"/>
            </lane>
        </edge>
    </timestep>
    <timestep time="84.00">
        <edge id="2/1to1/1">
            <lane id="2/1to1/1_0">
                <vehicle id="1" pos="11.00" speed="9.00"/>
                <vehicle id="0" pos="140.00" speed="10.00"/>
            </lane>
        </edge>
    </timestep>
    <timestep time="85.00">
        <edge id="2/1to1/1">
            <lane id="2/1to1/1_0">
                <vehicle id="1" pos="20.00" speed="9.00"/>
                <vehicle id="0" pos="150.00" speed="10.00"/>
            </lane>
        </edge>
    </timestep>
    <timestep time="86.00">
        <edge id="2/1to1/1">
            <lane id="2/1to1/1_0">
                <vehicle id="1" pos="29.00" speed="9.00"/>
                <vehicle id="0" pos="160.00" speed="10.00"/>
            </lane>
        </edge>
    </timestep>
    <timestep time="87.00">
        <edge id="2/1to1/1">
            <lane id="2/1to1/1_0">
                <vehicle id="1" pos="38.00" speed="9.00"/>
                <vehicle id="0" pos="170.00" speed="10.00"/>
            </lane>
        </edge>
    </timestep>
    <timestep time="88.00">
        <edge id="2/1to1/1">
            <lane id="2/1to1/1_0">
                <vehicle id="1" pos="47.00" speed="9.00"/>
                <vehicle id="0" pos="180.00" speed="10.00"/>
            </lane>
        </edge>
    </timestep>
    <timestep time="89.00">
        <edge id="2/1to1/1">
            <lane id="2/1to1/1_0">
                <vehicle id="1" pos="56.00" speed="9.00"/>
                <vehicle id="0" pos="190.00" speed="10.00"/>
            </lane>
        </edge>
    </timestep>
    <timestep time="90.00">
        <edge id="2/1to1/1">
            <lane id="2/1to1/1_0">
                <vehicle id="1" pos="65.00" speed="9.00"/>
                <vehicle id="0" pos="200.00" speed="10.00"/>
            </lane>
        </edge>
    </timestep>
    <timestep time="91.00">
        <edge id="2/1to1/1">
            <lane id="2/1to1/1_0">
                <vehicle id="1" pos="74.00" speed="9.00"/>
                <vehicle id="0" pos="210.00" speed="10.00"/>
            </lane>
        </edge>
    </timestep>
    <timestep time="92.00">
        <edge id="2/1to1/1">
            <lane id="2/1to1/1_0">
                <vehicle id="1" pos="83.00" speed="9.00"/>
                <vehicle id="0" pos="220.00" speed="10.00"/>
            </lane>
        </edge>
    </timestep>
    <timestep time="93.00">
        <edge id="2/1to1/1">
            <lane id="2/1to1/1_0">
                <vehicle id="1" pos="92.00" speed="9.00"/>
                <vehicle id="0" pos="230.00" speed="10.00"/>
            </lane>
        </edge>
    </timestep>
    <timestep time="94.00">
        <edge id="2/1to1/1">
            <lane id="2/1to1/1_0">
                <vehicle id="1" pos="101.00" speed="9.00"/>
                <vehicle id="0" pos="240.00" speed="10.00"/>
            </lane>
        </edge>
    </timestep>
    <timestep time="95.00">
        <edge id="2/1to1/1">
            <lane id="2/1to1/1_0">
                <vehicle id="1" pos="110.00" speed="9.00"/>
                <vehicle id="0" pos="250.00" speed="10.00"/>
            </lane>
        </edge>
    </timestep>
    <timestep time="96.00">
        <edge id="2/1to1/1">
            <lane id="2/1to1/1_0">
                <vehicle id="1" pos="119.00" speed="9.00"/>
                <vehicle id="0" pos="260.00" speed="10.00"/>
            </lane>
        </edge>
    </timestep>
    <timestep time="97.00">
        <edge id="2/1to1/1">
            <lane id="2/1to1/1_0">
                <vehicle id="1" pos="128.00" speed="9.00"/>
                <vehicle id="0" pos="270.00" speed="10.00"/>
            </lane>
        </edge>
    </timestep>
    <timestep time="98.00">
        <edge id="2/1to1/1">
            <lane id="2/1to1/1_0">
                <vehicle id="1" pos="137.00" speed="9.00"/>
                <vehicle id="0" pos="280.00" speed="10.00"/>
            </lane>
        </edge>
    </timestep>
    <timestep time="99.00">
        <edge id="2/1to1/1">
            <lane id="2/1to1/1_0">
                <vehicle id="1" pos="146.00" speed="9.00"/>
                <vehicle id="0" pos="290.00" speed="10.00"/>
            </lane>
        </edge>
    </timestep>
    <timestep time="100.00">
        <edge id="2/1to1/1">
            <lane id="2/1to1/1_0">
                <vehicle id="1" pos="155.00" speed="9.00"/>
                <vehicle id="0" pos="300.00" speed="10.00"/>
            </lane>
        </edge>
    </timestep>
    <timestep time="101.00">
        <edge id="2/1to1/1">
            <lane id="2/1to1/1_0">
                <vehicle id="1" pos="164.00" speed="9.00"/>
                <vehicle id="0" pos="310.00" speed="10.00"/>
            </lane>
        </edge>
    </timestep>
    <timestep time="102.00">
        <edge id="2/1to1/1">
            <lane id="2/1to1/1_0">
                <vehicle id="1" pos="173.00" speed="9.00"/>
                <vehicle id="0" pos="320.00" speed="10.00"/>
            </lane>
        </edge>
    </timestep>
    <timestep time="103.00">
        <edge id="2/1to1/1">
            <lane id="2/1to1/1_0">