<?xml version="1.0" encoding="UTF-8"?>

<!-- generated on Fri Nov 27 09:17:20 2020 by Eclipse SUMO sumo Version v1_7_0+1330-045eb6693b
This data file and the accompanying materials
are made available under the terms of the Eclipse Public License v2.0
which accompanies this distribution, and is available at
http://www.eclipse.org/legal/epl-v20.html
SPDX-License-Identifier: EPL-2.0
<configuration xmlns:xsi="http://www.w3.org/2001/XMLSchema-instance" xsi:noNamespaceSchemaLocation="http://sumo.dlr.de/xsd/sumoConfiguration.xsd">

    <input>
        <net-file value="three_split.net.xml"/>
        <route-files value="input_routes.rou.xml"/>
        <additional-files value="input_additional.add.xml"/>
    </input>

    <output>
        <write-license value="true"/>
    </output>

    <time>
        <end value="5401"/>
    </time>

    <processing>
        <default.speeddev value="0"/>
        <pedestrian.model value="nonInteracting"/>
    </processing>

    <report>
        <xml-validation value="never"/>
        <xml-validation.routes value="never"/>
        <duration-log.disable value="true"/>
        <no-step-log value="true"/>
    </report>

    <mesoscopic>
        <mesosim value="true"/>
    </mesoscopic>

</configuration>
-->

<meandata xmlns:xsi="http://www.w3.org/2001/XMLSchema-instance" xsi:noNamespaceSchemaLocation="http://sumo.dlr.de/xsd/meandata_file.xsd">
    <interval begin="0.00" end="3600.00" id="expect_2500_vehs">
        <edge id="beg" sampledSeconds="218942.04" traveltime="631.33" overlapTraveltime="637.64" density="121.63" laneDensity="121.63" occupancy="60.82" waitingTime="0.00" timeLoss="212704.79" speed="0.79" departed="376" arrived="0" entered="0" left="311" laneChangedFrom="0" laneChangedTo="0"/>
        <edge id="beg2left" sampledSeconds="0.00" departed="0" arrived="0" entered="0" left="0" laneChangedFrom="0" laneChangedTo="0"/>
        <edge id="beg2right" sampledSeconds="0.00" departed="0" arrived="0" entered="0" left="0" laneChangedFrom="0" laneChangedTo="0"/>
        <edge id="end" sampledSeconds="217592.27" traveltime="500.00" overlapTraveltime="505.00" density="120.88" laneDensity="120.88" occupancy="60.44" waitingTime="0.00" timeLoss="0.00" speed="1.00" departed="0" arrived="0" entered="468" left="403" laneChangedFrom="0" laneChangedTo="0"/>
        <edge id="left" sampledSeconds="0.00" departed="0" arrived="0" entered="0" left="0" laneChangedFrom="0" laneChangedTo="0"/>
        <edge id="left2end" sampledSeconds="0.00" departed="0" arrived="0" entered="0" left="0" laneChangedFrom="0" laneChangedTo="0"/>
        <edge id="middle" sampledSeconds="307095.05" traveltime="603.33" overlapTraveltime="606.34" density="85.30" laneDensity="85.30" occupancy="42.65" waitingTime="0.00" timeLoss="288785.72" speed="1.66" departed="239" arrived="0" entered="311" left="468" laneChangedFrom="0" laneChangedTo="0"/>
        <edge id="rend" sampledSeconds="7247.95" traveltime="17.98" overlapTraveltime="18.16" density="4.03" laneDensity="4.03" occupancy="2.01" waitingTime="0.00" timeLoss="0.00" speed="27.80" departed="0" arrived="403" entered="403" left="0" laneChangedFrom="0" laneChangedTo="0"/>
        <edge id="right" sampledSeconds="0.00" departed="0" arrived="0" entered="0" left="0" laneChangedFrom="0" laneChangedTo="0"/>
        <edge id="right2end" sampledSeconds="0.00" departed="0" arrived="0" entered="0" left="0" laneChangedFrom="0" laneChangedTo="0"/>
    </interval>
</meandata>
