<?xml version="1.0" encoding="UTF-8"?>

<!-- generated on 2026-04-19T19:25:27.959718+01:00 by Eclipse SUMO sumo v1_26_0+1251-0a6205dfced
<sumoConfiguration xmlns:xsi="http://www.w3.org/2001/XMLSchema-instance" xsi:noNamespaceSchemaLocation="http://sumo.dlr.de/xsd/sumoConfiguration.xsd">

    <input>
        <net-file value="input_net2.net.xml"/>
        <additional-files value="input_additional.add.xml,input_routes.rou.xml"/>
    </input>

    <output>
        <tripinfo-output value="tripinfo.xml"/>
    </output>

    <processing>
        <default.departspeed value="0"/>
        <default.departlane value="first"/>
    </processing>

    <report>
        <no-step-log value="true"/>
    </report>

    <traci_server>
        <remote-port value="46153"/>
    </traci_server>

</sumoConfiguration>
-->

<tripinfos xmlns:xsi="http://www.w3.org/2001/XMLSchema-instance" xsi:noNamespaceSchemaLocation="http://sumo.dlr.de/xsd/tripinfo_file.xsd">
    <tripinfo id="1" depart="60.00" departLane="WC_0" departPos="5.10" departSpeed="0.00" departDelay="0.00" arrival="94.00" arrivalLane="CE_1" arrivalPos="91.95" arrivalSpeed="8.22" duration="34.00" routeLength="194.90" waitingTime="1.00" waitingCount="1" stopTime="10.00" timeLoss="4.37" rerouteNo="1" devices="tripinfo_1 routing_1" vType="DEFAULT_VEHTYPE" speedFactor="0.94" vaporized=""/>
    <tripinfo id="1" depart="60.00" departLane="WC_0" departPos="5.10" departSpeed="0.00" departDelay="0.00" arrival="95.00" arrivalLane="CE_1" arrivalPos="91.95" arrivalSpeed="10.19" duration="35.00" routeLength="194.90" waitingTime="1.00" waitingCount="1" stopTime="10.00" timeLoss="4.65" rerouteNo="1" devices="tripinfo_1 routing_1" vType="DEFAULT_VEHTYPE" speedFactor="0.94" vaporized=""/>
    <tripinfo id="1" depart="60.00" departLane="WC_0" departPos="5.10" departSpeed="0.00" departDelay="0.00" arrival="94.00" arrivalLane="CE_1" arrivalPos="91.95" arrivalSpeed="8.75" duration="34.00" routeLength="194.90" waitingTime="1.00" waitingCount="1" stopTime="10.00" timeLoss="4.49" rerouteNo="1" devices="tripinfo_1 routing_1" vType="DEFAULT_VEHTYPE" speedFactor="0.94" vaporized=""/>
    <tripinfo id="1" depart="60.00" departLane="WC_0" departPos="5.10" departSpeed="0.00" departDelay="0.00" arrival="96.00" arrivalLane="CE_1" arrivalPos="91.95" arrivalSpeed="9.37" duration="36.00" routeLength="194.90" waitingTime="1.00" waitingCount="1" stopTime="10.00" timeLoss="5.12" rerouteNo="1" devices="tripinfo_1 routing_1" vType="DEFAULT_VEHTYPE" speedFactor="0.94" vaporized=""/>
    <tripinfo id="1" depart="60.00" departLane="WC_0" departPos="5.10" departSpeed="0.00" departDelay="0.00" arrival="95.00" arrivalLane="CE_1" arrivalPos="91.95" arrivalSpeed="8.71" duration="35.00" routeLength="194.90" waitingTime="1.00" waitingCount="1" stopTime="10.00" timeLoss="5.00" rerouteNo="1" devices="tripinfo_1 routing_1" vType="DEFAULT_VEHTYPE" speedFactor="0.94" vaporized=""/>
    <tripinfo id="1" depart="60.00" departLane="WC_0" departPos="5.10" departSpeed="0.00" departDelay="0.00" arrival="94.00" arrivalLane="CE_1" arrivalPos="91.95" arrivalSpeed="8.95" duration="34.00" routeLength="194.90" waitingTime="1.00" waitingCount="1" stopTime="10.00" timeLoss="3.96" rerouteNo="1" devices="tripinfo_1 routing_1" vType="DEFAULT_VEHTYPE" speedFactor="0.94" vaporized=""/>
    <tripinfo id="1" depart="60.00" departLane="WC_0" departPos="5.10" departSpeed="0.00" departDelay="0.00" arrival="95.00" arrivalLane="CE_1" arrivalPos="91.95" arrivalSpeed="7.85" duration="35.00" routeLength="194.90" waitingTime="1.00" waitingCount="1" stopTime="10.00" timeLoss="4.87" rerouteNo="1" devices="tripinfo_1 routing_1" vType="DEFAULT_VEHTYPE" speedFactor="0.94" vaporized=""/>
    <tripinfo id="1" depart="60.00" departLane="WC_0" departPos="5.10" departSpeed="0.00" departDelay="0.00" arrival="97.00" arrivalLane="CE_1" arrivalPos="91.95" arrivalSpeed="8.59" duration="37.00" routeLength="194.90" waitingTime="2.00" waitingCount="1" stopTime="10.00" timeLoss="5.79" rerouteNo="1" devices="tripinfo_1 routing_1" vType="DEFAULT_VEHTYPE" speedFactor="0.94" vaporized=""/>
    <tripinfo id="1" depart="60.00" departLane="WC_0" departPos="5.10" departSpeed="0.00" departDelay="0.00" arrival="95.00" arrivalLane="CE_1" arrivalPos="91.95" arrivalSpeed="8.69" duration="35.00" routeLength="194.90" waitingTime="1.00" waitingCount="1" stopTime="10.00" timeLoss="4.67" rerouteNo="1" devices="tripinfo_1 routing_1" vType="DEFAULT_VEHTYPE" speedFactor="0.94" vaporized=""/>
    <tripinfo id="1" depart="60.00" departLane="WC_0" departPos="5.10" departSpeed="0.00" departDelay="0.00" arrival="94.00" arrivalLane="CE_1" arrivalPos="91.95" arrivalSpeed="7.61" duration="34.00" routeLength="194.90" waitingTime="1.00" waitingCount="1" stopTime="10.00" timeLoss="4.00" rerouteNo="1" devices="tripinfo_1 routing_1" vType="DEFAULT_VEHTYPE" speedFactor="0.94" vaporized=""/>
</tripinfos>
