<?xml version="1.0" encoding="UTF-8"?>

<!-- generated on Wed May 27 21:48:10 2020 by Eclipse SUMO Version v1_6_0+0416-3465d80c93
<configuration xmlns:xsi="http://www.w3.org/2001/XMLSchema-instance" xsi:noNamespaceSchemaLocation="http://sumo.dlr.de/xsd/sumoConfiguration.xsd">

    <input>
        <net-file value="input_net2.net.xml"/>
        <additional-files value="input_additional.add.xml,input_routes.rou.xml"/>
    </input>

    <output>
        <tripinfo-output value="tripinfo.xml"/>
    </output>

    <report>
        <no-step-log value="true"/>
    </report>

    <traci_server>
        <remote-port value="51345"/>
    </traci_server>

</configuration>
-->

<tripinfos xmlns:xsi="http://www.w3.org/2001/XMLSchema-instance" xsi:noNamespaceSchemaLocation="http://sumo.dlr.de/xsd/tripinfo_file.xsd">
    <tripinfo id="1" depart="60.00" departLane="WC_0" departPos="5.10" departSpeed="0.00" departDelay="0.00" arrival="94.00" arrivalLane="CE_1" arrivalPos="91.95" arrivalSpeed="8.25" duration="34.00" routeLength="194.90" waitingTime="1.00" waitingCount="1" stopTime="10.00" timeLoss="8.88" rerouteNo="1" devices="tripinfo_1 routing_1" vType="DEFAULT_VEHTYPE" speedFactor="0.94" vaporized=""/>
    <tripinfo id="1" depart="60.00" departLane="WC_0" departPos="5.10" departSpeed="0.00" departDelay="0.00" arrival="95.00" arrivalLane="CE_1" arrivalPos="91.95" arrivalSpeed="10.19" duration="35.00" routeLength="194.90" waitingTime="1.00" waitingCount="1" stopTime="10.00" timeLoss="9.37" rerouteNo="1" devices="tripinfo_1 routing_1" vType="DEFAULT_VEHTYPE" speedFactor="0.94" vaporized=""/>
    <tripinfo id="1" depart="60.00" departLane="WC_0" departPos="5.10" departSpeed="0.00" departDelay="0.00" arrival="96.00" arrivalLane="CE_1" arrivalPos="91.95" arrivalSpeed="8.73" duration="36.00" routeLength="194.90" waitingTime="1.00" waitingCount="1" stopTime="10.00" timeLoss="10.51" rerouteNo="1" devices="tripinfo_1 routing_1" vType="DEFAULT_VEHTYPE" speedFactor="0.94" vaporized=""/>
    <tripinfo id="1" depart="60.00" departLane="WC_0" departPos="5.10" departSpeed="0.00" departDelay="0.00" arrival="96.00" arrivalLane="CE_1" arrivalPos="91.95" arrivalSpeed="9.38" duration="36.00" routeLength="194.90" waitingTime="2.00" waitingCount="1" stopTime="10.00" timeLoss="10.46" rerouteNo="1" devices="tripinfo_1 routing_1" vType="DEFAULT_VEHTYPE" speedFactor="0.94" vaporized=""/>
    <tripinfo id="1" depart="60.00" departLane="WC_0" departPos="5.10" departSpeed="0.00" departDelay="0.00" arrival="96.00" arrivalLane="CE_1" arrivalPos="91.95" arrivalSpeed="8.74" duration="36.00" routeLength="194.90" waitingTime="1.00" waitingCount="1" stopTime="10.00" timeLoss="10.47" rerouteNo="1" devices="tripinfo_1 routing_1" vType="DEFAULT_VEHTYPE" speedFactor="0.94" vaporized=""/>
    <tripinfo id="1" depart="60.00" departLane="WC_0" departPos="5.10" departSpeed="0.00" departDelay="0.00" arrival="95.00" arrivalLane="CE_1" arrivalPos="91.95" arrivalSpeed="8.93" duration="35.00" routeLength="194.90" waitingTime="1.00" waitingCount="1" stopTime="10.00" timeLoss="9.76" rerouteNo="1" devices="tripinfo_1 routing_1" vType="DEFAULT_VEHTYPE" speedFactor="0.94" vaporized=""/>
    <tripinfo id="1" depart="60.00" departLane="WC_0" departPos="5.10" departSpeed="0.00" departDelay="0.00" arrival="94.00" arrivalLane="CE_1" arrivalPos="91.95" arrivalSpeed="7.86" duration="34.00" routeLength="194.90" waitingTime="1.00" waitingCount="1" stopTime="10.00" timeLoss="8.92" rerouteNo="1" devices="tripinfo_1 routing_1" vType="DEFAULT_VEHTYPE" speedFactor="0.94" vaporized=""/>
    <tripinfo id="1" depart="60.00" departLane="WC_0" departPos="5.10" departSpeed="0.00" departDelay="0.00" arrival="95.00" arrivalLane="CE_1" arrivalPos="91.95" arrivalSpeed="8.55" duration="35.00" routeLength="194.90" waitingTime="1.00" waitingCount="1" stopTime="10.00" timeLoss="9.48" rerouteNo="1" devices="tripinfo_1 routing_1" vType="DEFAULT_VEHTYPE" speedFactor="0.94" vaporized=""/>
    <tripinfo id="1" depart="60.00" departLane="WC_0" departPos="5.10" departSpeed="0.00" departDelay="0.00" arrival="94.00" arrivalLane="CE_1" arrivalPos="91.95" arrivalSpeed="8.66" duration="34.00" routeLength="194.90" waitingTime="1.00" waitingCount="1" stopTime="10.00" timeLoss="8.96" rerouteNo="1" devices="tripinfo_1 routing_1" vType="DEFAULT_VEHTYPE" speedFactor="0.94" vaporized=""/>
    <tripinfo id="1" depart="60.00" departLane="WC_0" departPos="5.10" departSpeed="0.00" departDelay="0.00" arrival="94.00" arrivalLane="CE_1" arrivalPos="91.95" arrivalSpeed="7.58" duration="34.00" routeLength="194.90" waitingTime="1.00" waitingCount="1" stopTime="10.00" timeLoss="9.07" rerouteNo="1" devices="tripinfo_1 routing_1" vType="DEFAULT_VEHTYPE" speedFactor="0.94" vaporized=""/>
</tripinfos>
