<?xml version="1.0" encoding="UTF-8"?>

<!-- generated on 2026-04-23T13:21:42.528759+01:00 by Eclipse SUMO sumo v1_26_0+1352-fc0eb841c93
<sumoConfiguration xmlns:xsi="http://www.w3.org/2001/XMLSchema-instance" xsi:noNamespaceSchemaLocation="http://sumo.dlr.de/xsd/sumoConfiguration.xsd">

    <input>
        <net-file value="input_net2.net.xml"/>
        <additional-files value="input_additional.add.xml,input_routes.rou.xml"/>
    </input>

    <output>
        <tripinfo-output value="tripinfo.xml"/>
    </output>

    <processing>
        <default.departspeed value="0"/>
        <default.departlane value="first"/>
    </processing>

    <report>
        <no-step-log value="true"/>
    </report>

    <traci_server>
        <remote-port value="43403"/>
    </traci_server>

</sumoConfiguration>
-->

<tripinfos xmlns:xsi="http://www.w3.org/2001/XMLSchema-instance" xsi:noNamespaceSchemaLocation="http://sumo.dlr.de/xsd/tripinfo_file.xsd">
    <tripinfo id="1" depart="60.00" departLane="WC_0" departPos="5.10" departSpeed="0.00" departDelay="0.00" arrival="94.00" arrivalLane="CE_1" arrivalPos="91.95" arrivalSpeed="8.20" duration="34.00" routeLength="194.90" waitingTime="1.00" waitingCount="1" stopTime="10.00" timeLoss="6.55" rerouteNo="1" devices="tripinfo_1 routing_1" vType="DEFAULT_VEHTYPE" speedFactor="0.94" vaporized=""/>
    <tripinfo id="1" depart="60.00" departLane="WC_0" departPos="5.10" departSpeed="0.00" departDelay="0.00" arrival="95.00" arrivalLane="CE_1" arrivalPos="91.95" arrivalSpeed="10.14" duration="35.00" routeLength="194.90" waitingTime="1.00" waitingCount="1" stopTime="10.00" timeLoss="6.86" rerouteNo="1" devices="tripinfo_1 routing_1" vType="DEFAULT_VEHTYPE" speedFactor="0.94" vaporized=""/>
    <tripinfo id="1" depart="60.00" departLane="WC_0" departPos="5.10" departSpeed="0.00" departDelay="0.00" arrival="94.00" arrivalLane="CE_1" arrivalPos="91.95" arrivalSpeed="8.73" duration="34.00" routeLength="194.90" waitingTime="1.00" waitingCount="1" stopTime="10.00" timeLoss="6.76" rerouteNo="1" devices="tripinfo_1 routing_1" vType="DEFAULT_VEHTYPE" speedFactor="0.94" vaporized=""/>
    <tripinfo id="1" depart="60.00" departLane="WC_0" departPos="5.10" departSpeed="0.00" departDelay="0.00" arrival="96.00" arrivalLane="CE_1" arrivalPos="91.95" arrivalSpeed="9.35" duration="36.00" routeLength="194.90" waitingTime="1.00" waitingCount="1" stopTime="10.00" timeLoss="7.29" rerouteNo="1" devices="tripinfo_1 routing_1" vType="DEFAULT_VEHTYPE" speedFactor="0.94" vaporized=""/>
    <tripinfo id="1" depart="60.00" departLane="WC_0" departPos="5.10" departSpeed="0.00" departDelay="0.00" arrival="95.00" arrivalLane="CE_1" arrivalPos="91.95" arrivalSpeed="8.71" duration="35.00" routeLength="194.90" waitingTime="1.00" waitingCount="1" stopTime="10.00" timeLoss="7.34" rerouteNo="1" devices="tripinfo_1 routing_1" vType="DEFAULT_VEHTYPE" speedFactor="0.94" vaporized=""/>
    <tripinfo id="1" depart="60.00" departLane="WC_0" departPos="5.10" departSpeed="0.00" departDelay="0.00" arrival="94.00" arrivalLane="CE_1" arrivalPos="91.95" arrivalSpeed="8.91" duration="34.00" routeLength="194.90" waitingTime="1.00" waitingCount="1" stopTime="10.00" timeLoss="6.08" rerouteNo="1" devices="tripinfo_1 routing_1" vType="DEFAULT_VEHTYPE" speedFactor="0.94" vaporized=""/>
    <tripinfo id="1" depart="60.00" departLane="WC_0" departPos="5.10" departSpeed="0.00" departDelay="0.00" arrival="95.00" arrivalLane="CE_1" arrivalPos="91.95" arrivalSpeed="7.84" duration="35.00" routeLength="194.90" waitingTime="1.00" waitingCount="1" stopTime="10.00" timeLoss="7.01" rerouteNo="1" devices="tripinfo_1 routing_1" vType="DEFAULT_VEHTYPE" speedFactor="0.94" vaporized=""/>
    <tripinfo id="1" depart="60.00" departLane="WC_0" departPos="5.10" departSpeed="0.00" departDelay="0.00" arrival="97.00" arrivalLane="CE_1" arrivalPos="91.95" arrivalSpeed="8.53" duration="37.00" routeLength="194.90" waitingTime="2.00" waitingCount="1" stopTime="10.00" timeLoss="8.09" rerouteNo="1" devices="tripinfo_1 routing_1" vType="DEFAULT_VEHTYPE" speedFactor="0.94" vaporized=""/>
    <tripinfo id="1" depart="60.00" departLane="WC_0" departPos="5.10" departSpeed="0.00" departDelay="0.00" arrival="95.00" arrivalLane="CE_1" arrivalPos="91.95" arrivalSpeed="8.64" duration="35.00" routeLength="194.90" waitingTime="1.00" waitingCount="1" stopTime="10.00" timeLoss="6.92" rerouteNo="1" devices="tripinfo_1 routing_1" vType="DEFAULT_VEHTYPE" speedFactor="0.94" vaporized=""/>
    <tripinfo id="1" depart="60.00" departLane="WC_0" departPos="5.10" departSpeed="0.00" departDelay="0.00" arrival="94.00" arrivalLane="CE_1" arrivalPos="91.95" arrivalSpeed="7.57" duration="34.00" routeLength="194.90" waitingTime="1.00" waitingCount="1" stopTime="10.00" timeLoss="6.13" rerouteNo="1" devices="tripinfo_1 routing_1" vType="DEFAULT_VEHTYPE" speedFactor="0.94" vaporized=""/>
</tripinfos>
