<?xml version="1.0" encoding="UTF-8"?>

<!-- generated on 2022-06-10 13:29:02 by Eclipse SUMO sumo Version v1_13_0+0739-a19ee6c
This data file and the accompanying materials
are made available under the terms of the Eclipse Public License v2.0
which accompanies this distribution, and is available at
http://www.eclipse.org/legal/epl-v20.html
This file may also be made available under the following Secondary
Licenses when the conditions for such availability set forth in the Eclipse
Public License 2.0 are satisfied: GNU General Public License, version 2
or later which is available at
https://www.gnu.org/licenses/old-licenses/gpl-2.0-standalone.html
SPDX-License-Identifier: EPL-2.0 OR GPL-2.0-or-later
<configuration xmlns:xsi="http://www.w3.org/2001/XMLSchema-instance" xsi:noNamespaceSchemaLocation="http://sumo.dlr.de/xsd/sumoConfiguration.xsd">

    <input>
        <net-file value="net4.net.xml"/>
        <route-files value="input_routes.rou.xml"/>
        <additional-files value="input_additional.add.xml"/>
    </input>

    <output>
        <write-license value="true"/>
    </output>

    <processing>
        <default.speeddev value="0"/>
    </processing>

    <report>
        <xml-validation value="never"/>
        <duration-log.disable value="true"/>
        <no-step-log value="true"/>
    </report>

</configuration>
-->

<detector xmlns:xsi="http://www.w3.org/2001/XMLSchema-instance" xsi:noNamespaceSchemaLocation="http://sumo.dlr.de/xsd/det_e1_file.xsd">
    <interval begin="0.00" end="130.00" id="straight" nVehContrib="20" flow="553.85" occupancy="6.69" speed="12.73" harmonicMeanSpeed="11.49" length="5.00" nVehEntered="20"/>
    <interval begin="0.00" end="130.00" id="right" nVehContrib="10" flow="276.92" occupancy="3.08" speed="12.95" harmonicMeanSpeed="12.50" length="5.00" nVehEntered="10"/>
    <interval begin="0.00" end="130.00" id="left" nVehContrib="5" flow="138.46" occupancy="2.17" speed="8.85" harmonicMeanSpeed="8.85" length="5.00" nVehEntered="5"/>
</detector>
