<?xml version="1.0" encoding="UTF-8"?>

<!-- generated on 2022-06-10 16:01:56 by Eclipse SUMO sumo Version v1_13_0+0766-7c0d935
This data file and the accompanying materials
are made available under the terms of the Eclipse Public License v2.0
which accompanies this distribution, and is available at
http://www.eclipse.org/legal/epl-v20.html
This file may also be made available under the following Secondary
Licenses when the conditions for such availability set forth in the Eclipse
Public License 2.0 are satisfied: GNU General Public License, version 2
or later which is available at
https://www.gnu.org/licenses/old-licenses/gpl-2.0-standalone.html
SPDX-License-Identifier: EPL-2.0 OR GPL-2.0-or-later
<configuration xmlns:xsi="http://www.w3.org/2001/XMLSchema-instance" xsi:noNamespaceSchemaLocation="http://sumo.dlr.de/xsd/sumoConfiguration.xsd">

    <input>
        <net-file value="net4.net.xml"/>
        <route-files value="input_routes.rou.xml"/>
        <additional-files value="input_additional.add.xml"/>
    </input>

    <output>
        <write-license value="true"/>
    </output>

    <processing>
        <default.speeddev value="0"/>
    </processing>

    <report>
        <xml-validation value="never"/>
        <duration-log.disable value="true"/>
        <no-step-log value="true"/>
    </report>

    <mesoscopic>
        <mesosim value="true"/>
    </mesoscopic>

</configuration>
-->

<detector xmlns:xsi="http://www.w3.org/2001/XMLSchema-instance" xsi:noNamespaceSchemaLocation="http://sumo.dlr.de/xsd/det_e1meso_file.xsd">
    <interval begin="0.00" end="129.00" id="straight" sampledSeconds="233.84" density="19.53" laneDensity="19.53" occupancy="9.77" waitingTime="0.00" timeLoss="0.00" speed="13.89" speedRelative="1.00" departed="35" arrived="0" entered="0" left="35"/>
    <interval begin="0.00" end="129.00" id="right" sampledSeconds="233.84" density="19.53" laneDensity="19.53" occupancy="9.77" waitingTime="0.00" timeLoss="0.00" speed="13.89" speedRelative="1.00" departed="35" arrived="0" entered="0" left="35"/>
    <interval begin="0.00" end="129.00" id="left" sampledSeconds="233.84" density="19.53" laneDensity="19.53" occupancy="9.77" waitingTime="0.00" timeLoss="0.00" speed="13.89" speedRelative="1.00" departed="35" arrived="0" entered="0" left="35"/>
</detector>
