<?xml version="1.0" encoding="UTF-8"?>

<!-- generated on 05/02/13 15:10:02 by SUMO sumo Version 0.17.0
<?xml version="1.0" encoding="UTF-8"?>

<configuration xmlns:xsi="http://www.w3.org/2001/XMLSchema-instance" xsi:noNamespaceSchemaLocation="http://sumo-sim.org/xsd/sumoConfiguration.xsd">

    <input>
        <net-file value="net.net.xml"/>
        <additional-files value="input_routes.rou.xml,input_additional.add.xml,input_additional2.add.xml"/>
    </input>

    <time>
        <begin value="0"/>
        <end value="51"/>
    </time>

    <report>
        <no-duration-log value="true"/>
        <no-step-log value="true"/>
    </report>

    <mesoscopic>
        <mesosim value="true"/>
    </mesoscopic>

</configuration>
-->

<detector>
    <interval begin="0.00" end="10.00" id="3/1to2/1" sampledSeconds="0.00" departed="0" arrived="0" entered="0" left="0"/>
    <interval begin="10.00" end="20.00" id="3/1to2/1" sampledSeconds="0.00" departed="0" arrived="0" entered="0" left="0"/>
    <interval begin="20.00" end="30.00" id="3/1to2/1" sampledSeconds="0.00" departed="0" arrived="0" entered="0" left="0"/>
    <interval begin="30.00" end="40.00" id="3/1to2/1" sampledSeconds="0.00" departed="0" arrived="0" entered="0" left="0"/>
    <interval begin="40.00" end="50.00" id="3/1to2/1" sampledSeconds="9.76" density="10.00" occupancy="3.00" waitingTime="0.00" speed="10.00" departed="0" arrived="0" entered="1" left="1"/>
    <interval begin="50.00" end="51.00" id="3/1to2/1" sampledSeconds="0.00" departed="0" arrived="0" entered="0" left="0"/>
</detector>
