<?xml version="1.0"?>

<!-- generated on 04/17/08 12:06:22 by SUMO sumo Version 0.9.7
<configuration>

   <input>
      <net-file>three_split.net.xml</net-file>
      <additional-files>input_routes.rou.xml,input_additional.add.xml</additional-files>
   </input>

   <output>
      <vehroute-output>vehroutes.xml</vehroute-output>
   </output>

   <time>
      <begin>100</begin>
   </time>

   <processing>
      <no-duration-log>true</no-duration-log>
      <no-step-log>true</no-step-log>
   </processing>

</configuration>
-->

<routes>
   <vehicle id="0" depart="100" arrival="268">
      <replaced_route replacedOnEdge="beg"  replacedAtTime="100">beg middle end rend</replaced_route>

      <route>beg beg2left left left2end end</route>
   </vehicle>

   <vehicle id="0_0" depart="120" arrival="289">
      <replaced_route replacedOnEdge="beg"  replacedAtTime="120">beg middle end rend</replaced_route>

      <route>beg beg2right right right2end end</route>
   </vehicle>

   <vehicle id="0_1" depart="140" arrival="308">
      <replaced_route replacedOnEdge="beg"  replacedAtTime="140">beg middle end rend</replaced_route>

      <route>beg beg2left left left2end end</route>
   </vehicle>

   <vehicle id="0_2" depart="160" arrival="329">
      <replaced_route replacedOnEdge="beg"  replacedAtTime="160">beg middle end rend</replaced_route>

      <route>beg beg2right right right2end end</route>
   </vehicle>

   <vehicle id="0_3" depart="180" arrival="348">
      <replaced_route replacedOnEdge="beg"  replacedAtTime="180">beg middle end rend</replaced_route>

      <route>beg beg2left left left2end end</route>
   </vehicle>

   <vehicle id="0_4" depart="200" arrival="369">
      <replaced_route replacedOnEdge="beg"  replacedAtTime="200">beg middle end rend</replaced_route>

      <route>beg beg2right right right2end end</route>
   </vehicle>

</routes>
