<?xml version="1.0"?>

<!-- generated on 04/26/10 10:09:57 by SUMO sumo Version dev-SVN-r8163
<configuration>

    <input>
        <net-file value="three_split.net.xml"/>
        <additional-files value="input_routes.rou.xml,input_additional.add.xml"/>
    </input>

    <output>
        <vehroute-output value="vehroutes.xml"/>
    </output>

    <time>
        <begin value="100"/>
    </time>

    <report>
        <no-duration-log value="true"/>
        <no-step-log value="true"/>
    </report>

</configuration>
-->

<routes>
    <vehicle id="0.5" depart="100.00" arrival="270.00">
        <routeDistribution>
            <route replacedOnEdge="beg" replacedAtTime="100.00" probability="0" edges="beg middle end rend"/>
            <route edges="beg beg2right right right2end end"/>
        </routeDistribution>
    </vehicle>

    <vehicle id="0.6" depart="120.00" arrival="290.00">
        <routeDistribution>
            <route replacedOnEdge="beg" replacedAtTime="120.00" probability="0" edges="beg middle end rend"/>
            <route edges="beg beg2right right right2end end"/>
        </routeDistribution>
    </vehicle>

    <vehicle id="0.7" depart="140.00" arrival="310.00">
        <routeDistribution>
            <route replacedOnEdge="beg" replacedAtTime="140.00" probability="0" edges="beg middle end rend"/>
            <route edges="beg beg2right right right2end end"/>
        </routeDistribution>
    </vehicle>

    <vehicle id="0.8" depart="160.00" arrival="330.00">
        <routeDistribution>
            <route replacedOnEdge="beg" replacedAtTime="160.00" probability="0" edges="beg middle end rend"/>
            <route edges="beg beg2right right right2end end"/>
        </routeDistribution>
    </vehicle>

    <vehicle id="0.9" depart="180.00" arrival="349.00">
        <routeDistribution>
            <route replacedOnEdge="beg" replacedAtTime="180.00" probability="0" edges="beg middle end rend"/>
            <route edges="beg beg2left left left2end end"/>
        </routeDistribution>
    </vehicle>

    <vehicle id="0.10" depart="200.00" arrival="369.00">
        <routeDistribution>
            <route replacedOnEdge="beg" replacedAtTime="200.00" probability="0" edges="beg middle end rend"/>
            <route edges="beg beg2left left left2end end"/>
        </routeDistribution>
    </vehicle>

</routes>
