<?xml version="1.0" encoding="UTF-8"?>

<!-- generated on 2022-07-17 11:28:08 by Eclipse SUMO sumo Version v1_14_0+0148-77a3ad1
This data file and the accompanying materials
are made available under the terms of the Eclipse Public License v2.0
which accompanies this distribution, and is available at
http://www.eclipse.org/legal/epl-v20.html
This file may also be made available under the following Secondary
Licenses when the conditions for such availability set forth in the Eclipse
Public License 2.0 are satisfied: GNU General Public License, version 2
or later which is available at
https://www.gnu.org/licenses/old-licenses/gpl-2.0-standalone.html
SPDX-License-Identifier: EPL-2.0 OR GPL-2.0-or-later
<configuration xmlns:xsi="http://www.w3.org/2001/XMLSchema-instance" xsi:noNamespaceSchemaLocation="http://sumo.dlr.de/xsd/sumoConfiguration.xsd">

    <input>
        <net-file value="net.net.xml"/>
        <route-files value="input_routes.rou.xml"/>
        <additional-files value="input_additional.add.xml"/>
    </input>

    <output>
        <write-license value="true"/>
        <tripinfo-output value="tripinfos.xml"/>
        <vehroute-output value="vehroutes.xml"/>
    </output>

    <processing>
        <default.speeddev value="0"/>
        <pedestrian.model value="nonInteracting"/>
    </processing>

    <report>
        <xml-validation value="never"/>
        <no-step-log value="true"/>
    </report>

    <mesoscopic>
        <mesosim value="true"/>
    </mesoscopic>

</configuration>
-->

<routes xmlns:xsi="http://www.w3.org/2001/XMLSchema-instance" xsi:noNamespaceSchemaLocation="http://sumo.dlr.de/xsd/routes_file.xsd">
    <person id="person0" depart="0.00" departPos="90.00" arrival="168.00">
        <walk edges="a b" busStop="stopE"/>
        <ride from="e" to="f" arrivalPos="100.00" lines="train"/>
    </person>

    <vehicle id="train" type="tt" depart="0.00" departPos="293.18" departSpeed="27.7792" speedFactor="1.0000" arrival="196.00">
        <route edges="e f"/>
        <stop busStop="stopE" duration="20.00"/>
        <stop busStop="stopF" duration="20.00"/>
    </vehicle>

</routes>
