<?xml version="1.0" encoding="UTF-8"?>

<!-- generated on Thu Oct  8 16:44:02 2020 by Eclipse SUMO sumo Version v1_7_0+0559-c6cbcc54f3
This data file and the accompanying materials
are made available under the terms of the Eclipse Public License v2.0
which accompanies this distribution, and is available at
http://www.eclipse.org/legal/epl-v20.html
SPDX-License-Identifier: EPL-2.0
<configuration xmlns:xsi="http://www.w3.org/2001/XMLSchema-instance" xsi:noNamespaceSchemaLocation="http://sumo.dlr.de/xsd/sumoConfiguration.xsd">

    <input>
        <net-file value="net.net.xml"/>
        <route-files value="input_routes.rou.xml"/>
        <additional-files value="input_additional.add.xml,input_additional2.add.xml"/>
    </input>

    <output>
        <write-license value="true"/>
        <tripinfo-output value="tripinfos.xml"/>
        <save-state.times value="10,60"/>
        <save-state.files value="state2.xml,state.xml"/>
    </output>

    <processing>
        <default.speeddev value="0"/>
    </processing>

    <report>
        <verbose value="true"/>
        <xml-validation value="never"/>
        <xml-validation.routes value="never"/>
        <duration-log.disable value="true"/>
        <no-step-log value="true"/>
    </report>

</configuration>
-->

<tripinfos xmlns:xsi="http://www.w3.org/2001/XMLSchema-instance" xsi:noNamespaceSchemaLocation="http://sumo.dlr.de/xsd/tripinfo_file.xsd">
    <tripinfo id="between" depart="0.00" departLane="d_0" departPos="50.10" departSpeed="13.89" departDelay="0.00" arrival="36.00" arrivalLane="e_0" arrivalPos="141.24" arrivalSpeed="13.89" duration="36.00" routeLength="491.19" waitingTime="0.00" waitingCount="0" stopTime="0.00" timeLoss="0.00" rerouteNo="0" devices="tripinfo_between routing_between" vType="train" speedFactor="1.00" vaporized=""/>
    <tripinfo id="t1" depart="20.00" departLane="d_0" departPos="50.10" departSpeed="13.89" departDelay="0.00" arrival="140.00" arrivalLane="c_0" arrivalPos="400.00" arrivalSpeed="7.00" duration="120.00" routeLength="891.19" waitingTime="0.00" waitingCount="0" stopTime="30.00" timeLoss="25.73" rerouteNo="1" devices="tripinfo_t1 routing_t1" vType="train" speedFactor="1.00" vaporized=""/>
    <tripinfo id="t0" depart="0.00" departLane="a_0" departPos="50.10" departSpeed="13.89" departDelay="0.00" arrival="259.00" arrivalLane="c_0" arrivalPos="400.00" arrivalSpeed="7.00" duration="259.00" routeLength="849.90" waitingTime="110.00" waitingCount="1" stopTime="30.00" timeLoss="167.70" rerouteNo="1" devices="tripinfo_t0 routing_t0" vType="train" speedFactor="1.00" vaporized=""/>
</tripinfos>
