<?xml version="1.0" encoding="UTF-8"?>

<!-- generated on Wed Jan  3 09:20:47 2018 by SUMO Version v0_32_0+0043-24523c2
<?xml version="1.0" encoding="UTF-8"?>

<configuration xmlns:xsi="http://www.w3.org/2001/XMLSchema-instance" xsi:noNamespaceSchemaLocation="http://sumo.dlr.de/xsd/sumoConfiguration.xsd">

    <input>
        <net-file value="net.net.xml"/>
        <route-files value="input_routes.rou.xml"/>
    </input>

    <output>
        <tripinfo-output value="tripinfos.xml"/>
    </output>

    <report>
        <xml-validation value="never"/>
        <no-step-log value="true"/>
    </report>

    <traci_server>
        <remote-port value="41971"/>
    </traci_server>

</configuration>
-->

<tripinfos xmlns:xsi="http://www.w3.org/2001/XMLSchema-instance" xsi:noNamespaceSchemaLocation="http://sumo.dlr.de/xsd/tripinfo_file.xsd">
    <tripinfo id="0" depart="0.00" departLane="4/1to3/1_0" departPos="330.00" departSpeed="10.00" departDelay="0.00" arrival="47.00" arrivalLane="3/1to2/1_0" arrivalPos="400.00" arrivalSpeed="10.00" duration="47.00" routeLength="470.00" waitingTime="0.00" stopTime="0.00" timeLoss="0.00" rerouteNo="0" devices="tripinfo_0" vType="t1@0" speedFactor="1.00" vaporized=""/>
</tripinfos>
