<?xml version="1.0" encoding="UTF-8"?>

<!-- generated on Sat Jul 27 10:54:31 2019 by Eclipse SUMO Version v1_2_0+1308-8d07168154
This data file and the accompanying materials
are made available under the terms of the Eclipse Public License v2.0
which accompanies this distribution, and is available at
http://www.eclipse.org/legal/epl-v20.html
SPDX-License-Identifier: EPL-2.0
<configuration xmlns:xsi="http://www.w3.org/2001/XMLSchema-instance" xsi:noNamespaceSchemaLocation="http://sumo.dlr.de/xsd/sumoConfiguration.xsd">

    <input>
        <net-file value="net.net.xml"/>
        <route-files value="input_routes.rou.xml"/>
        <additional-files value="input_additional.add.xml"/>
    </input>

    <output>
        <write-license value="true"/>
        <tripinfo-output value="tripinfos.xml"/>
    </output>

    <processing>
        <default.speeddev value="0"/>
        <modelparkingmanoeuver value="true"/>
    </processing>

    <report>
        <xml-validation value="never"/>
        <duration-log.disable value="true"/>
        <no-step-log value="true"/>
    </report>

</configuration>
-->

<tripinfos xmlns:xsi="http://www.w3.org/2001/XMLSchema-instance" xsi:noNamespaceSchemaLocation="http://sumo.dlr.de/xsd/tripinfo_file.xsd">
    <tripinfo id="v.0" depart="0.00" departLane="a_0" departPos="12.10" departSpeed="0.00" departDelay="0.00" arrival="117.00" arrivalLane="c_0" arrivalPos="234.85" arrivalSpeed="13.89" duration="117.00" routeLength="835.56" waitingTime="14.00" waitingCount="1" stopTime="26.00" timeLoss="30.54" rerouteNo="0" devices="tripinfo_v.0" vType="bus" speedFactor="1.00" vaporized=""/>
    <tripinfo id="v.1" depart="4.00" departLane="a_0" departPos="5.10" departSpeed="0.00" departDelay="3.00" arrival="137.00" arrivalLane="c_0" arrivalPos="234.85" arrivalSpeed="13.89" duration="133.00" routeLength="842.56" waitingTime="22.00" waitingCount="2" stopTime="38.00" timeLoss="34.10" rerouteNo="0" devices="tripinfo_v.1" vType="default" speedFactor="1.00" vaporized=""/>
    <tripinfo id="v.2" depart="6.00" departLane="a_0" departPos="5.10" departSpeed="0.00" departDelay="4.00" arrival="151.00" arrivalLane="c_0" arrivalPos="234.85" arrivalSpeed="13.89" duration="145.00" routeLength="842.56" waitingTime="30.00" waitingCount="3" stopTime="40.00" timeLoss="44.10" rerouteNo="0" devices="tripinfo_v.2" vType="default" speedFactor="1.00" vaporized=""/>
    <tripinfo id="v.3" depart="10.00" departLane="a_0" departPos="12.10" departSpeed="0.00" departDelay="7.00" arrival="177.00" arrivalLane="c_0" arrivalPos="234.85" arrivalSpeed="13.89" duration="167.00" routeLength="835.56" waitingTime="41.00" waitingCount="4" stopTime="36.00" timeLoss="70.54" rerouteNo="0" devices="tripinfo_v.3" vType="bus" speedFactor="1.00" vaporized=""/>
    <tripinfo id="v.4" depart="14.00" departLane="a_0" departPos="5.10" departSpeed="0.00" departDelay="10.00" arrival="191.00" arrivalLane="c_0" arrivalPos="234.85" arrivalSpeed="13.89" duration="177.00" routeLength="842.56" waitingTime="49.00" waitingCount="5" stopTime="41.00" timeLoss="75.10" rerouteNo="0" devices="tripinfo_v.4" vType="default" speedFactor="1.00" vaporized=""/>
    <tripinfo id="v.5" depart="17.00" departLane="a_0" departPos="12.10" departSpeed="0.00" departDelay="12.00" arrival="217.00" arrivalLane="c_0" arrivalPos="234.85" arrivalSpeed="13.89" duration="200.00" routeLength="835.56" waitingTime="61.00" waitingCount="6" stopTime="41.00" timeLoss="98.54" rerouteNo="0" devices="tripinfo_v.5" vType="bus" speedFactor="1.00" vaporized=""/>
    <tripinfo id="v.6" depart="21.00" departLane="a_0" departPos="5.10" departSpeed="0.00" departDelay="15.00" arrival="237.00" arrivalLane="c_0" arrivalPos="234.85" arrivalSpeed="13.89" duration="216.00" routeLength="842.56" waitingTime="70.00" waitingCount="7" stopTime="47.00" timeLoss="108.10" rerouteNo="0" devices="tripinfo_v.6" vType="default" speedFactor="1.00" vaporized=""/>
    <tripinfo id="v.7" depart="24.00" departLane="a_0" departPos="12.10" departSpeed="0.00" departDelay="17.00" arrival="256.00" arrivalLane="c_0" arrivalPos="234.85" arrivalSpeed="13.89" duration="232.00" routeLength="835.56" waitingTime="83.00" waitingCount="8" stopTime="40.00" timeLoss="131.54" rerouteNo="0" devices="tripinfo_v.7" vType="bus" speedFactor="1.00" vaporized=""/>
    <tripinfo id="v.8" depart="29.00" departLane="a_0" departPos="12.10" departSpeed="0.00" departDelay="21.00" arrival="281.00" arrivalLane="c_0" arrivalPos="234.85" arrivalSpeed="13.89" duration="252.00" routeLength="835.56" waitingTime="95.00" waitingCount="8" stopTime="40.00" timeLoss="151.54" rerouteNo="0" devices="tripinfo_v.8" vType="bus" speedFactor="1.00" vaporized=""/>
    <tripinfo id="v.9" depart="33.00" departLane="a_0" departPos="5.10" departSpeed="0.00" departDelay="24.00" arrival="295.00" arrivalLane="c_0" arrivalPos="234.85" arrivalSpeed="13.89" duration="262.00" routeLength="842.56" waitingTime="103.00" waitingCount="9" stopTime="45.00" timeLoss="156.10" rerouteNo="0" devices="tripinfo_v.9" vType="default" speedFactor="1.00" vaporized=""/>
    <tripinfo id="v.10" depart="36.00" departLane="a_0" departPos="12.10" departSpeed="0.00" departDelay="26.00" arrival="314.00" arrivalLane="c_0" arrivalPos="234.85" arrivalSpeed="13.89" duration="278.00" routeLength="835.56" waitingTime="118.00" waitingCount="10" stopTime="34.00" timeLoss="183.54" rerouteNo="0" devices="tripinfo_v.10" vType="bus" speedFactor="1.00" vaporized=""/>
    <tripinfo id="v.11" depart="40.00" departLane="a_0" departPos="5.10" departSpeed="0.00" departDelay="29.00" arrival="334.00" arrivalLane="c_0" arrivalPos="234.85" arrivalSpeed="13.89" duration="294.00" routeLength="842.56" waitingTime="127.00" waitingCount="11" stopTime="40.00" timeLoss="193.10" rerouteNo="0" devices="tripinfo_v.11" vType="default" speedFactor="1.00" vaporized=""/>
    <tripinfo id="v.12" depart="42.00" departLane="a_0" departPos="5.10" departSpeed="0.00" departDelay="30.00" arrival="348.00" arrivalLane="c_0" arrivalPos="234.85" arrivalSpeed="13.89" duration="306.00" routeLength="842.56" waitingTime="137.00" waitingCount="12" stopTime="40.00" timeLoss="205.10" rerouteNo="0" devices="tripinfo_v.12" vType="default" speedFactor="1.00" vaporized=""/>
    <tripinfo id="v.13" depart="46.00" departLane="a_0" departPos="12.10" departSpeed="0.00" departDelay="33.00" arrival="367.00" arrivalLane="c_0" arrivalPos="234.85" arrivalSpeed="13.89" duration="321.00" routeLength="835.56" waitingTime="149.00" waitingCount="13" stopTime="29.00" timeLoss="231.54" rerouteNo="0" devices="tripinfo_v.13" vType="bus" speedFactor="1.00" vaporized=""/>
    <tripinfo id="v.14" depart="50.00" departLane="a_0" departPos="5.10" departSpeed="0.00" departDelay="36.00" arrival="387.00" arrivalLane="c_0" arrivalPos="234.85" arrivalSpeed="13.89" duration="337.00" routeLength="842.56" waitingTime="157.00" waitingCount="14" stopTime="40.00" timeLoss="236.10" rerouteNo="0" devices="tripinfo_v.14" vType="default" speedFactor="1.00" vaporized=""/>
    <tripinfo id="v.15" depart="52.00" departLane="a_0" departPos="5.10" departSpeed="0.00" departDelay="37.00" arrival="401.00" arrivalLane="c_0" arrivalPos="234.85" arrivalSpeed="13.89" duration="349.00" routeLength="842.56" waitingTime="166.00" waitingCount="15" stopTime="40.00" timeLoss="248.10" rerouteNo="0" devices="tripinfo_v.15" vType="default" speedFactor="1.00" vaporized=""/>
    <tripinfo id="v.16" depart="56.00" departLane="a_0" departPos="12.10" departSpeed="0.00" departDelay="40.00" arrival="427.00" arrivalLane="c_0" arrivalPos="234.85" arrivalSpeed="13.89" duration="371.00" routeLength="835.56" waitingTime="178.00" waitingCount="15" stopTime="36.00" timeLoss="274.54" rerouteNo="0" devices="tripinfo_v.16" vType="bus" speedFactor="1.00" vaporized=""/>
    <tripinfo id="v.17" depart="60.00" departLane="a_0" departPos="5.10" departSpeed="0.00" departDelay="43.00" arrival="441.00" arrivalLane="c_0" arrivalPos="234.85" arrivalSpeed="13.89" duration="381.00" routeLength="842.56" waitingTime="186.00" waitingCount="16" stopTime="41.00" timeLoss="279.10" rerouteNo="0" devices="tripinfo_v.17" vType="default" speedFactor="1.00" vaporized=""/>
    <tripinfo id="v.18" depart="63.00" departLane="a_0" departPos="12.10" departSpeed="0.00" departDelay="45.00" arrival="450.00" arrivalLane="c_0" arrivalPos="234.85" arrivalSpeed="13.89" duration="387.00" routeLength="835.56" waitingTime="198.00" waitingCount="17" stopTime="24.00" timeLoss="302.54" rerouteNo="0" devices="tripinfo_v.18" vType="bus" speedFactor="1.00" vaporized=""/>
    <tripinfo id="v.19" depart="67.00" departLane="a_0" departPos="5.10" departSpeed="0.00" departDelay="48.00" arrival="462.00" arrivalLane="c_0" arrivalPos="234.85" arrivalSpeed="13.89" duration="395.00" routeLength="842.56" waitingTime="207.00" waitingCount="18" stopTime="22.00" timeLoss="312.10" rerouteNo="0" devices="tripinfo_v.19" vType="default" speedFactor="1.00" vaporized=""/>
</tripinfos>
