<?xml version="1.0" encoding="UTF-8"?>

<!-- generated on 2021-07-21 09:45:54 by Eclipse SUMO sumo Version v1_9_2+0869-aa4bd6d3b8
<configuration xmlns:xsi="http://www.w3.org/2001/XMLSchema-instance" xsi:noNamespaceSchemaLocation="http://sumo.dlr.de/xsd/sumoConfiguration.xsd">

    <input>
        <net-file value="net.net.xml"/>
        <route-files value="input_routes.rou.xml"/>
    </input>

    <output>
        <summary-output value="summary.xml"/>
        <tripinfo-output value="tripinfo.xml"/>
        <save-state.times value="10"/>
        <save-state.files value="state.xml"/>
    </output>

    <processing>
        <default.speeddev value="0"/>
    </processing>

    <report>
        <verbose value="true"/>
        <duration-log.disable value="true"/>
        <no-step-log value="true"/>
    </report>

</configuration>
-->

<summary xmlns:xsi="http://www.w3.org/2001/XMLSchema-instance" xsi:noNamespaceSchemaLocation="http://sumo.dlr.de/xsd/summary_file.xsd">
    <step time="0.00" loaded="2" inserted="1" running="1" waiting="1" ended="0" arrived="0" collisions="0" teleports="0" halting="1" stopped="0" meanWaitingTime="0.00" meanTravelTime="-1.00" meanSpeed="0.00" meanSpeedRelative="0.00"/>
    <step time="1.00" loaded="2" inserted="1" running="1" waiting="1" ended="0" arrived="0" collisions="0" teleports="0" halting="0" stopped="0" meanWaitingTime="0.00" meanTravelTime="-1.00" meanSpeed="1.00" meanSpeedRelative="1.00"/>
    <step time="2.00" loaded="2" inserted="1" running="1" waiting="1" ended="0" arrived="0" collisions="0" teleports="0" halting="0" stopped="0" meanWaitingTime="0.00" meanTravelTime="-1.00" meanSpeed="1.00" meanSpeedRelative="0.07"/>
    <step time="3.00" loaded="2" inserted="1" running="1" waiting="1" ended="0" arrived="0" collisions="0" teleports="0" halting="0" stopped="0" meanWaitingTime="0.00" meanTravelTime="-1.00" meanSpeed="3.60" meanSpeedRelative="0.26"/>
    <step time="4.00" loaded="2" inserted="2" running="2" waiting="0" ended="0" arrived="0" collisions="0" teleports="0" halting="1" stopped="0" meanWaitingTime="2.00" meanTravelTime="-1.00" meanSpeed="3.10" meanSpeedRelative="0.22"/>
    <step time="5.00" loaded="3" inserted="2" running="2" waiting="1" ended="0" arrived="0" collisions="0" teleports="0" halting="0" stopped="0" meanWaitingTime="2.00" meanTravelTime="-1.00" meanSpeed="4.90" meanSpeedRelative="0.82"/>
    <step time="6.00" loaded="3" inserted="2" running="2" waiting="1" ended="0" arrived="0" collisions="0" teleports="0" halting="0" stopped="0" meanWaitingTime="2.00" meanTravelTime="-1.00" meanSpeed="6.20" meanSpeedRelative="0.45"/>
    <step time="7.00" loaded="3" inserted="2" running="2" waiting="1" ended="0" arrived="0" collisions="0" teleports="0" halting="0" stopped="0" meanWaitingTime="2.00" meanTravelTime="-1.00" meanSpeed="8.75" meanSpeedRelative="0.63"/>
    <step time="8.00" loaded="4" inserted="3" running="3" waiting="1" ended="0" arrived="0" collisions="0" teleports="0" halting="1" stopped="0" meanWaitingTime="2.33" meanTravelTime="-1.00" meanSpeed="6.70" meanSpeedRelative="0.48"/>
    <step time="9.00" loaded="4" inserted="3" running="3" waiting="1" ended="0" arrived="0" collisions="0" teleports="0" halting="0" stopped="0" meanWaitingTime="2.33" meanTravelTime="-1.00" meanSpeed="7.90" meanSpeedRelative="0.88"/>
    <step time="10.00" loaded="6" inserted="3" running="3" waiting="3" ended="0" arrived="0" collisions="0" teleports="0" halting="0" stopped="0" meanWaitingTime="2.33" meanTravelTime="-1.00" meanSpeed="8.76" meanSpeedRelative="0.63"/>
    <step time="11.00" loaded="6" inserted="3" running="3" waiting="3" ended="0" arrived="0" collisions="0" teleports="0" halting="0" stopped="0" meanWaitingTime="2.33" meanTravelTime="-1.00" meanSpeed="10.46" meanSpeedRelative="0.75"/>
    <step time="12.00" loaded="6" inserted="4" running="4" waiting="2" ended="0" arrived="0" collisions="0" teleports="0" halting="1" stopped="0" meanWaitingTime="2.75" meanTravelTime="-1.00" meanSpeed="8.50" meanSpeedRelative="0.61"/>
    <step time="13.00" loaded="6" inserted="4" running="4" waiting="2" ended="0" arrived="0" collisions="0" teleports="0" halting="0" stopped="0" meanWaitingTime="2.75" meanTravelTime="-1.00" meanSpeed="9.39" meanSpeedRelative="0.91"/>
    <step time="14.00" loaded="6" inserted="4" running="4" waiting="2" ended="0" arrived="0" collisions="0" teleports="0" halting="0" stopped="0" meanWaitingTime="2.75" meanTravelTime="-1.00" meanSpeed="10.04" meanSpeedRelative="0.72"/>
    <step time="15.00" loaded="7" inserted="4" running="4" waiting="3" ended="0" arrived="0" collisions="0" teleports="0" halting="0" stopped="0" meanWaitingTime="2.75" meanTravelTime="-1.00" meanSpeed="11.32" meanSpeedRelative="0.81"/>
    <step time="16.00" loaded="8" inserted="5" running="5" waiting="3" ended="0" arrived="0" collisions="0" teleports="0" halting="1" stopped="0" meanWaitingTime="3.40" meanTravelTime="-1.00" meanSpeed="9.57" meanSpeedRelative="0.69"/>
    <step time="17.00" loaded="8" inserted="5" running="5" waiting="3" ended="0" arrived="0" collisions="0" teleports="0" halting="0" stopped="0" meanWaitingTime="3.40" meanTravelTime="-1.00" meanSpeed="10.29" meanSpeedRelative="0.93"/>
    <step time="18.00" loaded="8" inserted="5" running="5" waiting="3" ended="0" arrived="0" collisions="0" teleports="0" halting="0" stopped="0" meanWaitingTime="3.40" meanTravelTime="-1.00" meanSpeed="10.81" meanSpeedRelative="0.78"/>
    <step time="19.00" loaded="8" inserted="5" running="5" waiting="3" ended="0" arrived="0" collisions="0" teleports="0" halting="0" stopped="0" meanWaitingTime="3.40" meanTravelTime="-1.00" meanSpeed="11.83" meanSpeedRelative="0.85"/>
    <step time="20.00" loaded="9" inserted="6" running="6" waiting="3" ended="0" arrived="0" collisions="0" teleports="0" halting="1" stopped="0" meanWaitingTime="4.50" meanTravelTime="-1.00" meanSpeed="10.29" meanSpeedRelative="0.74"/>
    <step time="21.00" loaded="9" inserted="6" running="6" waiting="3" ended="0" arrived="0" collisions="0" teleports="0" halting="0" stopped="0" meanWaitingTime="4.50" meanTravelTime="-1.00" meanSpeed="10.89" meanSpeedRelative="0.94"/>
    <step time="22.00" loaded="10" inserted="6" running="6" waiting="4" ended="0" arrived="0" collisions="0" teleports="0" halting="0" stopped="0" meanWaitingTime="4.50" meanTravelTime="-1.00" meanSpeed="11.33" meanSpeedRelative="0.82"/>
    <step time="23.00" loaded="10" inserted="6" running="6" waiting="4" ended="0" arrived="0" collisions="0" teleports="0" halting="0" stopped="0" meanWaitingTime="4.50" meanTravelTime="-1.00" meanSpeed="12.17" meanSpeedRelative="0.88"/>
    <step time="24.00" loaded="11" inserted="7" running="7" waiting="4" ended="0" arrived="0" collisions="0" teleports="0" halting="1" stopped="0" meanWaitingTime="5.14" meanTravelTime="-1.00" meanSpeed="10.81" meanSpeedRelative="0.78"/>
    <step time="25.00" loaded="13" inserted="7" running="7" waiting="6" ended="0" arrived="0" collisions="0" teleports="0" halting="0" stopped="0" meanWaitingTime="5.14" meanTravelTime="-1.00" meanSpeed="11.32" meanSpeedRelative="0.95"/>
    <step time="26.00" loaded="13" inserted="7" running="6" waiting="6" ended="1" arrived="1" collisions="0" teleports="0" halting="0" stopped="0" meanWaitingTime="5.14" meanTravelTime="26.00" meanSpeed="11.33" meanSpeedRelative="0.82"/>
    <step time="27.00" loaded="13" inserted="7" running="6" waiting="6" ended="1" arrived="1" collisions="0" teleports="0" halting="0" stopped="0" meanWaitingTime="5.14" meanTravelTime="26.00" meanSpeed="12.17" meanSpeedRelative="0.88"/>
    <step time="28.00" loaded="13" inserted="8" running="7" waiting="5" ended="1" arrived="1" collisions="0" teleports="0" halting="1" stopped="0" meanWaitingTime="6.00" meanTravelTime="26.00" meanSpeed="10.81" meanSpeedRelative="0.78"/>
    <step time="29.00" loaded="13" inserted="8" running="7" waiting="5" ended="1" arrived="1" collisions="0" teleports="0" halting="0" stopped="0" meanWaitingTime="6.00" meanTravelTime="26.00" meanSpeed="11.32" meanSpeedRelative="0.95"/>
    <step time="30.00" loaded="15" inserted="8" running="6" waiting="7" ended="2" arrived="2" collisions="0" teleports="0" halting="0" stopped="0" meanWaitingTime="6.00" meanTravelTime="26.00" meanSpeed="11.33" meanSpeedRelative="0.82"/>
    <step time="31.00" loaded="15" inserted="8" running="6" waiting="7" ended="2" arrived="2" collisions="0" teleports="0" halting="0" stopped="0" meanWaitingTime="6.00" meanTravelTime="26.00" meanSpeed="12.18" meanSpeedRelative="0.88"/>
    <step time="32.00" loaded="16" inserted="9" running="7" waiting="7" ended="2" arrived="2" collisions="0" teleports="0" halting="1" stopped="0" meanWaitingTime="6.67" meanTravelTime="26.00" meanSpeed="10.81" meanSpeedRelative="0.78"/>
    <step time="33.00" loaded="16" inserted="9" running="7" waiting="7" ended="2" arrived="2" collisions="0" teleports="0" halting="0" stopped="0" meanWaitingTime="6.67" meanTravelTime="26.00" meanSpeed="11.32" meanSpeedRelative="0.95"/>
    <step time="34.00" loaded="16" inserted="9" running="6" waiting="7" ended="3" arrived="3" collisions="0" teleports="0" halting="0" stopped="0" meanWaitingTime="6.67" meanTravelTime="26.00" meanSpeed="11.33" meanSpeedRelative="0.82"/>
    <step time="35.00" loaded="17" inserted="9" running="6" waiting="8" ended="3" arrived="3" collisions="0" teleports="0" halting="0" stopped="0" meanWaitingTime="6.67" meanTravelTime="26.00" meanSpeed="12.17" meanSpeedRelative="0.88"/>
    <step time="36.00" loaded="18" inserted="10" running="7" waiting="8" ended="3" arrived="3" collisions="0" teleports="0" halting="1" stopped="0" meanWaitingTime="7.40" meanTravelTime="26.00" meanSpeed="10.81" meanSpeedRelative="0.78"/>
    <step time="37.00" loaded="18" inserted="10" running="7" waiting="8" ended="3" arrived="3" collisions="0" teleports="0" halting="0" stopped="0" meanWaitingTime="7.40" meanTravelTime="26.00" meanSpeed="11.32" meanSpeedRelative="0.95"/>
    <step time="38.00" loaded="18" inserted="10" running="6" waiting="8" ended="4" arrived="4" collisions="0" teleports="0" halting="0" stopped="0" meanWaitingTime="7.40" meanTravelTime="26.00" meanSpeed="11.33" meanSpeedRelative="0.82"/>
    <step time="39.00" loaded="18" inserted="10" running="6" waiting="8" ended="4" arrived="4" collisions="0" teleports="0" halting="0" stopped="0" meanWaitingTime="7.40" meanTravelTime="26.00" meanSpeed="12.17" meanSpeedRelative="0.88"/>
    <step time="40.00" loaded="20" inserted="11" running="7" waiting="9" ended="4" arrived="4" collisions="0" teleports="0" halting="1" stopped="0" meanWaitingTime="8.18" meanTravelTime="26.00" meanSpeed="10.81" meanSpeedRelative="0.78"/>
    <step time="41.00" loaded="20" inserted="11" running="7" waiting="9" ended="4" arrived="4" collisions="0" teleports="0" halting="0" stopped="0" meanWaitingTime="8.18" meanTravelTime="26.00" meanSpeed="11.32" meanSpeedRelative="0.95"/>
    <step time="42.00" loaded="20" inserted="11" running="6" waiting="9" ended="5" arrived="5" collisions="0" teleports="0" halting="0" stopped="0" meanWaitingTime="8.18" meanTravelTime="26.00" meanSpeed="11.33" meanSpeedRelative="0.82"/>
    <step time="43.00" loaded="20" inserted="11" running="6" waiting="9" ended="5" arrived="5" collisions="0" teleports="0" halting="0" stopped="0" meanWaitingTime="8.18" meanTravelTime="26.00" meanSpeed="12.18" meanSpeedRelative="0.88"/>
    <step time="44.00" loaded="20" inserted="12" running="7" waiting="8" ended="5" arrived="5" collisions="0" teleports="0" halting="1" stopped="0" meanWaitingTime="9.08" meanTravelTime="26.00" meanSpeed="10.81" meanSpeedRelative="0.78"/>
    <step time="45.00" loaded="21" inserted="12" running="7" waiting="9" ended="5" arrived="5" collisions="0" teleports="0" halting="0" stopped="0" meanWaitingTime="9.08" meanTravelTime="26.00" meanSpeed="11.32" meanSpeedRelative="0.95"/>
    <step time="46.00" loaded="21" inserted="12" running="6" waiting="9" ended="6" arrived="6" collisions="0" teleports="0" halting="0" stopped="0" meanWaitingTime="9.08" meanTravelTime="26.00" meanSpeed="11.33" meanSpeedRelative="0.82"/>
    <step time="47.00" loaded="21" inserted="12" running="6" waiting="9" ended="6" arrived="6" collisions="0" teleports="0" halting="0" stopped="0" meanWaitingTime="9.08" meanTravelTime="26.00" meanSpeed="12.18" meanSpeedRelative="0.88"/>
    <step time="48.00" loaded="21" inserted="13" running="7" waiting="8" ended="6" arrived="6" collisions="0" teleports="0" halting="1" stopped="0" meanWaitingTime="10.15" meanTravelTime="26.00" meanSpeed="10.81" meanSpeedRelative="0.78"/>
    <step time="49.00" loaded="21" inserted="13" running="7" waiting="8" ended="6" arrived="6" collisions="0" teleports="0" halting="0" stopped="0" meanWaitingTime="10.15" meanTravelTime="26.00" meanSpeed="11.32" meanSpeedRelative="0.95"/>
    <step time="50.00" loaded="23" inserted="13" running="6" waiting="10" ended="7" arrived="7" collisions="0" teleports="0" halting="0" stopped="0" meanWaitingTime="10.15" meanTravelTime="26.00" meanSpeed="11.33" meanSpeedRelative="0.82"/>
    <step time="51.00" loaded="23" inserted="13" running="6" waiting="10" ended="7" arrived="7" collisions="0" teleports="0" halting="0" stopped="0" meanWaitingTime="10.15" meanTravelTime="26.00" meanSpeed="12.17" meanSpeedRelative="0.88"/>
    <step time="52.00" loaded="23" inserted="14" running="7" waiting="9" ended="7" arrived="7" collisions="0" teleports="0" halting="1" stopped="0" meanWaitingTime="11.00" meanTravelTime="26.00" meanSpeed="10.81" meanSpeedRelative="0.78"/>
    <step time="53.00" loaded="23" inserted="14" running="7" waiting="9" ended="7" arrived="7" collisions="0" teleports="0" halting="0" stopped="0" meanWaitingTime="11.00" meanTravelTime="26.00" meanSpeed="11.32" meanSpeedRelative="0.95"/>
    <step time="54.00" loaded="23" inserted="14" running="6" waiting="9" ended="8" arrived="8" collisions="0" teleports="0" halting="0" stopped="0" meanWaitingTime="11.00" meanTravelTime="26.00" meanSpeed="11.33" meanSpeedRelative="0.82"/>
    <step time="55.00" loaded="24" inserted="14" running="6" waiting="10" ended="8" arrived="8" collisions="0" teleports="0" halting="0" stopped="0" meanWaitingTime="11.00" meanTravelTime="26.00" meanSpeed="12.18" meanSpeedRelative="0.88"/>
    <step time="56.00" loaded="24" inserted="15" running="7" waiting="9" ended="8" arrived="8" collisions="0" teleports="0" halting="1" stopped="0" meanWaitingTime="12.00" meanTravelTime="26.00" meanSpeed="10.81" meanSpeedRelative="0.78"/>
    <step time="57.00" loaded="24" inserted="15" running="7" waiting="9" ended="8" arrived="8" collisions="0" teleports="0" halting="0" stopped="0" meanWaitingTime="12.00" meanTravelTime="26.00" meanSpeed="11.32" meanSpeedRelative="0.95"/>
    <step time="58.00" loaded="24" inserted="15" running="6" waiting="9" ended="9" arrived="9" collisions="0" teleports="0" halting="0" stopped="0" meanWaitingTime="12.00" meanTravelTime="26.00" meanSpeed="11.33" meanSpeedRelative="0.82"/>
    <step time="59.00" loaded="24" inserted="15" running="6" waiting="9" ended="9" arrived="9" collisions="0" teleports="0" halting="0" stopped="0" meanWaitingTime="12.00" meanTravelTime="26.00" meanSpeed="12.17" meanSpeedRelative="0.88"/>
    <step time="60.00" loaded="24" inserted="16" running="7" waiting="8" ended="9" arrived="9" collisions="0" teleports="0" halting="1" stopped="0" meanWaitingTime="13.00" meanTravelTime="26.00" meanSpeed="10.81" meanSpeedRelative="0.78"/>
    <step time="61.00" loaded="24" inserted="16" running="7" waiting="8" ended="9" arrived="9" collisions="0" teleports="0" halting="0" stopped="0" meanWaitingTime="13.00" meanTravelTime="26.00" meanSpeed="11.32" meanSpeedRelative="0.95"/>
    <step time="62.00" loaded="24" inserted="16" running="6" waiting="8" ended="10" arrived="10" collisions="0" teleports="0" halting="0" stopped="0" meanWaitingTime="13.00" meanTravelTime="26.00" meanSpeed="11.33" meanSpeedRelative="0.82"/>
    <step time="63.00" loaded="24" inserted="16" running="6" waiting="8" ended="10" arrived="10" collisions="0" teleports="0" halting="0" stopped="0" meanWaitingTime="13.00" meanTravelTime="26.00" meanSpeed="12.18" meanSpeedRelative="0.88"/>
    <step time="64.00" loaded="24" inserted="17" running="7" waiting="7" ended="10" arrived="10" collisions="0" teleports="0" halting="1" stopped="0" meanWaitingTime="13.94" meanTravelTime="26.00" meanSpeed="10.81" meanSpeedRelative="0.78"/>
    <step time="65.00" loaded="24" inserted="17" running="7" waiting="7" ended="10" arrived="10" collisions="0" teleports="0" halting="0" stopped="0" meanWaitingTime="13.94" meanTravelTime="26.00" meanSpeed="11.32" meanSpeedRelative="0.95"/>
    <step time="66.00" loaded="24" inserted="17" running="6" waiting="7" ended="11" arrived="11" collisions="0" teleports="0" halting="0" stopped="0" meanWaitingTime="13.94" meanTravelTime="26.00" meanSpeed="11.33" meanSpeedRelative="0.82"/>
    <step time="67.00" loaded="24" inserted="17" running="6" waiting="7" ended="11" arrived="11" collisions="0" teleports="0" halting="0" stopped="0" meanWaitingTime="13.94" meanTravelTime="26.00" meanSpeed="12.18" meanSpeedRelative="0.88"/>
    <step time="68.00" loaded="25" inserted="18" running="7" waiting="7" ended="11" arrived="11" collisions="0" teleports="0" halting="1" stopped="0" meanWaitingTime="14.94" meanTravelTime="26.00" meanSpeed="10.81" meanSpeedRelative="0.78"/>
    <step time="69.00" loaded="25" inserted="18" running="7" waiting="7" ended="11" arrived="11" collisions="0" teleports="0" halting="0" stopped="0" meanWaitingTime="14.94" meanTravelTime="26.00" meanSpeed="11.32" meanSpeedRelative="0.95"/>
    <step time="70.00" loaded="25" inserted="18" running="6" waiting="7" ended="12" arrived="12" collisions="0" teleports="0" halting="0" stopped="0" meanWaitingTime="14.94" meanTravelTime="26.00" meanSpeed="11.33" meanSpeedRelative="0.82"/>
    <step time="71.00" loaded="25" inserted="18" running="6" waiting="7" ended="12" arrived="12" collisions="0" teleports="0" halting="0" stopped="0" meanWaitingTime="14.94" meanTravelTime="26.00" meanSpeed="12.17" meanSpeedRelative="0.88"/>
    <step time="72.00" loaded="25" inserted="19" running="7" waiting="6" ended="12" arrived="12" collisions="0" teleports="0" halting="1" stopped="0" meanWaitingTime="15.84" meanTravelTime="26.00" meanSpeed="10.81" meanSpeedRelative="0.78"/>
    <step time="73.00" loaded="25" inserted="19" running="7" waiting="6" ended="12" arrived="12" collisions="0" teleports="0" halting="0" stopped="0" meanWaitingTime="15.84" meanTravelTime="26.00" meanSpeed="11.32" meanSpeedRelative="0.95"/>
    <step time="74.00" loaded="25" inserted="19" running="6" waiting="6" ended="13" arrived="13" collisions="0" teleports="0" halting="0" stopped="0" meanWaitingTime="15.84" meanTravelTime="26.00" meanSpeed="11.33" meanSpeedRelative="0.82"/>
    <step time="75.00" loaded="25" inserted="19" running="6" waiting="6" ended="13" arrived="13" collisions="0" teleports="0" halting="0" stopped="0" meanWaitingTime="15.84" meanTravelTime="26.00" meanSpeed="12.18" meanSpeedRelative="0.88"/>
    <step time="76.00" loaded="25" inserted="20" running="7" waiting="5" ended="13" arrived="13" collisions="0" teleports="0" halting="1" stopped="0" meanWaitingTime="16.85" meanTravelTime="26.00" meanSpeed="10.81" meanSpeedRelative="0.78"/>
    <step time="77.00" loaded="25" inserted="20" running="7" waiting="5" ended="13" arrived="13" collisions="0" teleports="0" halting="0" stopped="0" meanWaitingTime="16.85" meanTravelTime="26.00" meanSpeed="11.32" meanSpeedRelative="0.95"/>
    <step time="78.00" loaded="25" inserted="20" running="6" waiting="5" ended="14" arrived="14" collisions="0" teleports="0" halting="0" stopped="0" meanWaitingTime="16.85" meanTravelTime="26.00" meanSpeed="11.33" meanSpeedRelative="0.82"/>
    <step time="79.00" loaded="25" inserted="20" running="6" waiting="5" ended="14" arrived="14" collisions="0" teleports="0" halting="0" stopped="0" meanWaitingTime="16.85" meanTravelTime="26.00" meanSpeed="12.17" meanSpeedRelative="0.88"/>
    <step time="80.00" loaded="25" inserted="21" running="7" waiting="4" ended="14" arrived="14" collisions="0" teleports="0" halting="1" stopped="0" meanWaitingTime="17.71" meanTravelTime="26.00" meanSpeed="10.81" meanSpeedRelative="0.78"/>
    <step time="81.00" loaded="25" inserted="21" running="7" waiting="4" ended="14" arrived="14" collisions="0" teleports="0" halting="0" stopped="0" meanWaitingTime="17.71" meanTravelTime="26.00" meanSpeed="11.32" meanSpeedRelative="0.95"/>
    <step time="82.00" loaded="25" inserted="21" running="6" waiting="4" ended="15" arrived="15" collisions="0" teleports="0" halting="0" stopped="0" meanWaitingTime="17.71" meanTravelTime="26.00" meanSpeed="11.33" meanSpeedRelative="0.82"/>
    <step time="83.00" loaded="26" inserted="21" running="6" waiting="5" ended="15" arrived="15" collisions="0" teleports="0" halting="0" stopped="0" meanWaitingTime="17.71" meanTravelTime="26.00" meanSpeed="12.18" meanSpeedRelative="0.88"/>
    <step time="84.00" loaded="26" inserted="22" running="7" waiting="4" ended="15" arrived="15" collisions="0" teleports="0" halting="1" stopped="0" meanWaitingTime="18.45" meanTravelTime="26.00" meanSpeed="10.81" meanSpeedRelative="0.78"/>
    <step time="85.00" loaded="26" inserted="22" running="7" waiting="4" ended="15" arrived="15" collisions="0" teleports="0" halting="0" stopped="0" meanWaitingTime="18.45" meanTravelTime="26.00" meanSpeed="11.32" meanSpeedRelative="0.95"/>
    <step time="86.00" loaded="26" inserted="22" running="6" waiting="4" ended="16" arrived="16" collisions="0" teleports="0" halting="0" stopped="0" meanWaitingTime="18.45" meanTravelTime="26.00" meanSpeed="11.33" meanSpeedRelative="0.82"/>
    <step time="87.00" loaded="27" inserted="22" running="6" waiting="5" ended="16" arrived="16" collisions="0" teleports="0" halting="0" stopped="0" meanWaitingTime="18.45" meanTravelTime="26.00" meanSpeed="12.18" meanSpeedRelative="0.88"/>
    <step time="88.00" loaded="27" inserted="23" running="7" waiting="4" ended="16" arrived="16" collisions="0" teleports="0" halting="1" stopped="0" meanWaitingTime="19.30" meanTravelTime="26.00" meanSpeed="10.81" meanSpeedRelative="0.78"/>
    <step time="89.00" loaded="27" inserted="23" running="7" waiting="4" ended="16" arrived="16" collisions="0" teleports="0" halting="0" stopped="0" meanWaitingTime="19.30" meanTravelTime="26.00" meanSpeed="11.32" meanSpeedRelative="0.95"/>
    <step time="90.00" loaded="27" inserted="23" running="6" waiting="4" ended="17" arrived="17" collisions="0" teleports="0" halting="0" stopped="0" meanWaitingTime="19.30" meanTravelTime="26.00" meanSpeed="11.33" meanSpeedRelative="0.82"/>
    <step time="91.00" loaded="27" inserted="23" running="6" waiting="4" ended="17" arrived="17" collisions="0" teleports="0" halting="0" stopped="0" meanWaitingTime="19.30" meanTravelTime="26.00" meanSpeed="12.17" meanSpeedRelative="0.88"/>
    <step time="92.00" loaded="28" inserted="24" running="7" waiting="4" ended="17" arrived="17" collisions="0" teleports="0" halting="1" stopped="0" meanWaitingTime="20.04" meanTravelTime="26.00" meanSpeed="10.81" meanSpeedRelative="0.78"/>
    <step time="93.00" loaded="28" inserted="24" running="7" waiting="4" ended="17" arrived="17" collisions="0" teleports="0" halting="0" stopped="0" meanWaitingTime="20.04" meanTravelTime="26.00" meanSpeed="11.32" meanSpeedRelative="0.95"/>
    <step time="94.00" loaded="28" inserted="24" running="6" waiting="4" ended="18" arrived="18" collisions="0" teleports="0" halting="0" stopped="0" meanWaitingTime="20.04" meanTravelTime="26.00" meanSpeed="11.33" meanSpeedRelative="0.82"/>
    <step time="95.00" loaded="28" inserted="24" running="6" waiting="4" ended="18" arrived="18" collisions="0" teleports="0" halting="0" stopped="0" meanWaitingTime="20.04" meanTravelTime="26.00" meanSpeed="12.17" meanSpeedRelative="0.88"/>
    <step time="96.00" loaded="29" inserted="25" running="7" waiting="4" ended="18" arrived="18" collisions="0" teleports="0" halting="1" stopped="0" meanWaitingTime="20.36" meanTravelTime="26.00" meanSpeed="10.81" meanSpeedRelative="0.78"/>
    <step time="97.00" loaded="30" inserted="25" running="7" waiting="5" ended="18" arrived="18" collisions="0" teleports="0" halting="0" stopped="0" meanWaitingTime="20.36" meanTravelTime="26.00" meanSpeed="11.32" meanSpeedRelative="0.95"/>
    <step time="98.00" loaded="30" inserted="25" running="6" waiting="5" ended="19" arrived="19" collisions="0" teleports="0" halting="0" stopped="0" meanWaitingTime="20.36" meanTravelTime="26.00" meanSpeed="11.33" meanSpeedRelative="0.82"/>
    <step time="99.00" loaded="30" inserted="25" running="6" waiting="5" ended="19" arrived="19" collisions="0" teleports="0" halting="0" stopped="0" meanWaitingTime="20.36" meanTravelTime="26.00" meanSpeed="12.17" meanSpeedRelative="0.88"/>
    <step time="100.00" loaded="30" inserted="26" running="7" waiting="4" ended="19" arrived="19" collisions="0" teleports="0" halting="1" stopped="0" meanWaitingTime="20.23" meanTravelTime="26.00" meanSpeed="10.81" meanSpeedRelative="0.78"/>
    <step time="101.00" loaded="30" inserted="26" running="7" waiting="4" ended="19" arrived="19" collisions="0" teleports="0" halting="0" stopped="0" meanWaitingTime="20.23" meanTravelTime="26.00" meanSpeed="11.32" meanSpeedRelative="0.95"/>
    <step time="102.00" loaded="30" inserted="26" running="6" waiting="4" ended="20" arrived="20" collisions="0" teleports="0" halting="0" stopped="0" meanWaitingTime="20.23" meanTravelTime="26.00" meanSpeed="11.33" meanSpeedRelative="0.82"/>
    <step time="103.00" loaded="30" inserted="26" running="6" waiting="4" ended="20" arrived="20" collisions="0" teleports="0" halting="0" stopped="0" meanWaitingTime="20.23" meanTravelTime="26.00" meanSpeed="12.17" meanSpeedRelative="0.88"/>
    <step time="104.00" loaded="30" inserted="27" running="7" waiting="3" ended="20" arrived="20" collisions="0" teleports="0" halting="1" stopped="0" meanWaitingTime="20.11" meanTravelTime="26.00" meanSpeed="10.81" meanSpeedRelative="0.78"/>
    <step time="105.00" loaded="30" inserted="27" running="7" waiting="3" ended="20" arrived="20" collisions="0" teleports="0" halting="0" stopped="0" meanWaitingTime="20.11" meanTravelTime="26.00" meanSpeed="11.32" meanSpeedRelative="0.95"/>
    <step time="106.00" loaded="30" inserted="27" running="6" waiting="3" ended="21" arrived="21" collisions="0" teleports="0" halting="0" stopped="0" meanWaitingTime="20.11" meanTravelTime="26.00" meanSpeed="11.33" meanSpeedRelative="0.82"/>
    <step time="107.00" loaded="30" inserted="27" running="6" waiting="3" ended="21" arrived="21" collisions="0" teleports="0" halting="0" stopped="0" meanWaitingTime="20.11" meanTravelTime="26.00" meanSpeed="12.17" meanSpeedRelative="0.88"/>
    <step time="108.00" loaded="30" inserted="28" running="7" waiting="2" ended="21" arrived="21" collisions="0" teleports="0" halting="1" stopped="0" meanWaitingTime="19.96" meanTravelTime="26.00" meanSpeed="10.81" meanSpeedRelative="0.78"/>
    <step time="109.00" loaded="30" inserted="28" running="7" waiting="2" ended="21" arrived="21" collisions="0" teleports="0" halting="0" stopped="0" meanWaitingTime="19.96" meanTravelTime="26.00" meanSpeed="11.32" meanSpeedRelative="0.95"/>
    <step time="110.00" loaded="30" inserted="28" running="6" waiting="2" ended="22" arrived="22" collisions="0" teleports="0" halting="0" stopped="0" meanWaitingTime="19.96" meanTravelTime="26.00" meanSpeed="11.33" meanSpeedRelative="0.82"/>
    <step time="111.00" loaded="30" inserted="28" running="6" waiting="2" ended="22" arrived="22" collisions="0" teleports="0" halting="0" stopped="0" meanWaitingTime="19.96" meanTravelTime="26.00" meanSpeed="12.18" meanSpeedRelative="0.88"/>
    <step time="112.00" loaded="30" inserted="29" running="7" waiting="1" ended="22" arrived="22" collisions="0" teleports="0" halting="1" stopped="0" meanWaitingTime="19.83" meanTravelTime="26.00" meanSpeed="10.81" meanSpeedRelative="0.78"/>
    <step time="113.00" loaded="30" inserted="29" running="7" waiting="1" ended="22" arrived="22" collisions="0" teleports="0" halting="0" stopped="0" meanWaitingTime="19.83" meanTravelTime="26.00" meanSpeed="11.32" meanSpeedRelative="0.95"/>
    <step time="114.00" loaded="30" inserted="29" running="6" waiting="1" ended="23" arrived="23" collisions="0" teleports="0" halting="0" stopped="0" meanWaitingTime="19.83" meanTravelTime="26.00" meanSpeed="11.33" meanSpeedRelative="0.82"/>
    <step time="115.00" loaded="30" inserted="29" running="6" waiting="1" ended="23" arrived="23" collisions="0" teleports="0" halting="0" stopped="0" meanWaitingTime="19.83" meanTravelTime="26.00" meanSpeed="12.18" meanSpeedRelative="0.88"/>
    <step time="116.00" loaded="30" inserted="30" running="7" waiting="0" ended="23" arrived="23" collisions="0" teleports="0" halting="1" stopped="0" meanWaitingTime="19.80" meanTravelTime="26.00" meanSpeed="10.81" meanSpeedRelative="0.78"/>
    <step time="117.00" loaded="30" inserted="30" running="7" waiting="0" ended="23" arrived="23" collisions="0" teleports="0" halting="0" stopped="0" meanWaitingTime="19.80" meanTravelTime="26.00" meanSpeed="11.32" meanSpeedRelative="0.95"/>
    <step time="118.00" loaded="30" inserted="30" running="6" waiting="0" ended="24" arrived="24" collisions="0" teleports="0" halting="0" stopped="0" meanWaitingTime="19.80" meanTravelTime="26.00" meanSpeed="11.33" meanSpeedRelative="0.82"/>
    <step time="119.00" loaded="30" inserted="30" running="6" waiting="0" ended="24" arrived="24" collisions="0" teleports="0" halting="0" stopped="0" meanWaitingTime="19.80" meanTravelTime="26.00" meanSpeed="12.18" meanSpeedRelative="0.88"/>