<?xml version="1.0" encoding="UTF-8"?>

<!-- generated on 05/02/13 14:10:39 by SUMO sumo Version 0.17.0
<?xml version="1.0" encoding="UTF-8"?>

<configuration xmlns:xsi="http://www.w3.org/2001/XMLSchema-instance" xsi:noNamespaceSchemaLocation="http://sumo-sim.org/xsd/sumoConfiguration.xsd">

    <input>
        <net-file value="three_split.net.xml"/>
        <route-files value="input_routes.rou.xml"/>
    </input>

    <output>
        <tripinfo-output value="tripinfos.xml"/>
    </output>

    <report>
        <no-duration-log value="true"/>
        <no-step-log value="true"/>
    </report>

</configuration>
-->

<tripinfos>
    <personinfo id="p1" depart="0.00">
        <stop arrival="0.00"/>
        <walk arrival="9.00"/>
        <stop arrival="29.00"/>
        <walk arrival="49.00"/>
    </personinfo>
</tripinfos>
