<?xml version="1.0" encoding="UTF-8"?>

<!-- generated on Thu Dec 10 14:12:49 2020 by Eclipse SUMO sumo Version v1_8_0+0100-9052e56b94
This data file and the accompanying materials
are made available under the terms of the Eclipse Public License v2.0
which accompanies this distribution, and is available at
http://www.eclipse.org/legal/epl-v20.html
SPDX-License-Identifier: EPL-2.0
<configuration xmlns:xsi="http://www.w3.org/2001/XMLSchema-instance" xsi:noNamespaceSchemaLocation="http://sumo.dlr.de/xsd/sumoConfiguration.xsd">

    <input>
        <net-file value="three_split.net.xml"/>
        <route-files value="input_routes.rou.xml"/>
    </input>

    <output>
        <write-license value="true"/>
        <tripinfo-output value="tripinfos.xml"/>
    </output>

    <processing>
        <default.speeddev value="0"/>
        <pedestrian.model value="nonInteracting"/>
    </processing>

    <report>
        <xml-validation value="never"/>
        <xml-validation.routes value="never"/>
        <duration-log.disable value="true"/>
        <no-step-log value="true"/>
    </report>

</configuration>
-->

<tripinfos xmlns:xsi="http://www.w3.org/2001/XMLSchema-instance" xsi:noNamespaceSchemaLocation="http://sumo.dlr.de/xsd/tripinfo_file.xsd">
    <containerinfo id="c2.0" depart="0.00" type="DEFAULT_CONTAINERTYPE">
        <tranship depart="0.00" departPos="0.00" arrival="1440.00" arrivalPos="500.00" duration="1440.00" routeLength="2000.00" maxSpeed="1.39"/>
    </containerinfo>
    <containerinfo id="c2.1" depart="2.00" type="DEFAULT_CONTAINERTYPE">
        <tranship depart="2.00" departPos="0.00" arrival="1442.00" arrivalPos="500.00" duration="1440.00" routeLength="2000.00" maxSpeed="1.39"/>
    </containerinfo>
    <containerinfo id="c1.0" depart="2.00" type="DEFAULT_CONTAINERTYPE">
        <tranship depart="2.00" departPos="0.00" arrival="1442.00" arrivalPos="500.00" duration="1440.00" routeLength="2000.00" maxSpeed="1.39"/>
    </containerinfo>
    <containerinfo id="c2.2" depart="3.00" type="DEFAULT_CONTAINERTYPE">
        <tranship depart="3.00" departPos="0.00" arrival="1443.00" arrivalPos="500.00" duration="1440.00" routeLength="2000.00" maxSpeed="1.39"/>
    </containerinfo>
    <containerinfo id="c2.3" depart="5.00" type="DEFAULT_CONTAINERTYPE">
        <tranship depart="5.00" departPos="0.00" arrival="1445.00" arrivalPos="500.00" duration="1440.00" routeLength="2000.00" maxSpeed="1.39"/>
    </containerinfo>
    <containerinfo id="c1.1" depart="5.00" type="DEFAULT_CONTAINERTYPE">
        <tranship depart="5.00" departPos="0.00" arrival="1445.00" arrivalPos="500.00" duration="1440.00" routeLength="2000.00" maxSpeed="1.39"/>
    </containerinfo>
    <containerinfo id="c2.4" depart="6.00" type="DEFAULT_CONTAINERTYPE">
        <tranship depart="6.00" departPos="0.00" arrival="1446.00" arrivalPos="500.00" duration="1440.00" routeLength="2000.00" maxSpeed="1.39"/>
    </containerinfo>
    <containerinfo id="c2.5" depart="8.00" type="DEFAULT_CONTAINERTYPE">
        <tranship depart="8.00" departPos="0.00" arrival="1448.00" arrivalPos="500.00" duration="1440.00" routeLength="2000.00" maxSpeed="1.39"/>
    </containerinfo>
</tripinfos>
