<?xml version="1.0" encoding="UTF-8"?>

<!-- generated on Mon Sep 16 20:58:09 2019 by Eclipse SUMO Version v1_3_1+0348-1784406169
This data file and the accompanying materials
are made available under the terms of the Eclipse Public License v2.0
which accompanies this distribution, and is available at
http://www.eclipse.org/legal/epl-v20.html
SPDX-License-Identifier: EPL-2.0
<configuration xmlns:xsi="http://www.w3.org/2001/XMLSchema-instance" xsi:noNamespaceSchemaLocation="http://sumo.dlr.de/xsd/sumoConfiguration.xsd">

    <input>
        <net-file value="net.net.xml"/>
        <route-files value="input_trips.trips.xml"/>
        <additional-files value="input_districts.taz.xml"/>
    </input>

    <output>
        <write-license value="true"/>
        <vehroute-output value="vehroutes.xml"/>
    </output>

    <processing>
        <default.speeddev value="0"/>
        <pedestrian.model value="nonInteracting"/>
    </processing>

    <routing>
        <routing-algorithm value="astar"/>
        <astar.landmark-distances value="lookuptable"/>
    </routing>

    <report>
        <verbose value="true"/>
        <xml-validation value="never"/>
        <no-step-log value="true"/>
    </report>

    <mesoscopic>
        <mesosim value="true"/>
    </mesoscopic>

</configuration>
-->

<routes xmlns:xsi="http://www.w3.org/2001/XMLSchema-instance" xsi:noNamespaceSchemaLocation="http://sumo.dlr.de/xsd/routes_file.xsd">
    <vehicle id="0" depart="0.00" fromTaz="1" toTaz="2" arrival="59.00">
        <route edges="5/5to5/6 5/6to6/6 6/6to6/7 6/7to7/7 7/7to7/8 7/8to8/8 8/8to8/9 8/9to9/9 9/9to8/9"/>
    </vehicle>

</routes>
