<?xml version="1.0" encoding="UTF-8"?>

<!-- generated on 2026-05-27T13:15:29.164660+01:00 by Eclipse SUMO sumo v1_27_0+0033-cf46830a21a
This data file and the accompanying materials
are made available under the terms of the Eclipse Public License v2.0
which accompanies this distribution, and is available at
http://www.eclipse.org/legal/epl-v20.html
This file may also be made available under the following Secondary
Licenses when the conditions for such availability set forth in the Eclipse
Public License 2.0 are satisfied: GNU General Public License, version 2
or later which is available at
https://www.gnu.org/licenses/old-licenses/gpl-2.0-standalone.html
SPDX-License-Identifier: EPL-2.0 OR GPL-2.0-or-later
<sumoConfiguration xmlns:xsi="http://www.w3.org/2001/XMLSchema-instance" xsi:noNamespaceSchemaLocation="http://sumo.dlr.de/xsd/sumoConfiguration.xsd">

    <input>
        <net-file value="net.net.xml"/>
        <route-files value="input_routes.rou.xml"/>
        <additional-files value="input_additional.add.xml,input_additional2.add.xml"/>
    </input>

    <output>
        <write-license value="true"/>
        <tripinfo-output.write-unfinished value="true"/>
    </output>

    <time>
        <begin value="0"/>
        <end value="300"/>
        <step-length value="0.1"/>
    </time>

    <processing>
        <default.departspeed value="0"/>
        <default.departlane value="first"/>
        <default.speeddev value="0"/>
    </processing>

    <report>
        <xml-validation value="never"/>
        <duration-log.statistics value="true"/>
        <no-step-log value="true"/>
    </report>

</sumoConfiguration>
-->

<meandata xmlns:xsi="http://www.w3.org/2001/XMLSchema-instance" xsi:noNamespaceSchemaLocation="http://sumo.dlr.de/xsd/meandata_file.xsd">
    <interval begin="0.00" end="6.00" id="dump_6">
        <edge id="1/1to2/1" sampledSeconds="15.33" traveltime="37.68" overlapTraveltime="36.01" density="20.97" overlapDensity="26.58" laneDensity="20.97" occupancy="12.20" waitingTime="0.00" timeLoss="13.13" speed="2.81" speedRelative="0.14" departed="6" arrived="0" entered="0" left="3" laneChangedFrom="0" laneChangedTo="0" flow="192.54"/>
        <edge id="2/1to3/1" sampledSeconds="5.89" traveltime="12.83" overlapTraveltime="13.50" density="10.22" overlapDensity="10.22" laneDensity="10.22" occupancy="4.24" waitingTime="0.00" timeLoss="3.64" speed="7.49" speedRelative="0.38" departed="0" arrived="0" entered="2" left="0" laneChangedFrom="0" laneChangedTo="0" flow="275.60"/>
    </interval>
    <interval begin="6.00" end="12.00" id="dump_6">
        <edge id="1/1to2/1" sampledSeconds="31.40" traveltime="18.91" overlapTraveltime="18.88" density="51.28" overlapDensity="54.45" laneDensity="51.28" occupancy="26.37" waitingTime="0.00" timeLoss="22.82" speed="5.36" speedRelative="0.27" departed="6" arrived="0" entered="0" left="3" laneChangedFrom="0" laneChangedTo="0" flow="938.69"/>
        <edge id="2/1to3/1" sampledSeconds="24.00" traveltime="6.82" overlapTraveltime="7.12" density="40.71" overlapDensity="41.60" laneDensity="40.71" occupancy="19.70" waitingTime="0.00" timeLoss="6.60" speed="14.21" speedRelative="0.73" departed="0" arrived="0" entered="4" left="2" laneChangedFrom="0" laneChangedTo="0" flow="2065.89"/>
        <edge id="3/1to4/1" sampledSeconds="2.00" traveltime="4.93" overlapTraveltime="5.18" density="3.48" overlapDensity="3.48" laneDensity="3.48" occupancy="1.52" waitingTime="0.00" timeLoss="0.01" speed="19.51" speedRelative="1.00" departed="0" arrived="0" entered="2" left="0" laneChangedFrom="0" laneChangedTo="0" flow="244.15"/>
    </interval>
    <interval begin="12.00" end="18.00" id="dump_6">
        <edge id="1/1to2/1" sampledSeconds="41.80" traveltime="13.47" overlapTraveltime="13.64" density="69.53" overlapDensity="72.47" laneDensity="69.53" occupancy="34.47" waitingTime="0.00" timeLoss="25.99" speed="7.41" speedRelative="0.38" departed="5" arrived="0" entered="0" left="5" laneChangedFrom="0" laneChangedTo="0" flow="1786.83"/>
        <edge id="2/1to3/1" sampledSeconds="26.33" traveltime="5.58" overlapTraveltime="5.85" density="43.83" overlapDensity="45.66" laneDensity="43.83" occupancy="21.72" waitingTime="0.00" timeLoss="3.11" speed="17.29" speedRelative="0.88" departed="0" arrived="0" entered="5" left="4" laneChangedFrom="0" laneChangedTo="0" flow="2716.38"/>
        <edge id="3/1to4/1" sampledSeconds="20.44" traveltime="4.97" overlapTraveltime="5.23" density="34.50" overlapDensity="35.44" laneDensity="34.50" occupancy="17.04" waitingTime="0.00" timeLoss="0.26" speed="19.35" speedRelative="0.99" departed="0" arrived="0" entered="4" left="3" laneChangedFrom="0" laneChangedTo="0" flow="2402.34"/>
        <edge id="4/1to5/1" sampledSeconds="3.83" traveltime="4.92" overlapTraveltime="5.18" density="6.64" overlapDensity="6.64" laneDensity="6.64" occupancy="3.10" waitingTime="0.00" timeLoss="0.01" speed="19.53" speedRelative="1.00" departed="0" arrived="0" entered="2" left="0" laneChangedFrom="0" laneChangedTo="0" flow="467.06"/>
    </interval>
    <interval begin="18.00" end="24.00" id="dump_6">
        <edge id="1/1to2/1" sampledSeconds="33.76" traveltime="9.44" overlapTraveltime="9.69" density="56.35" overlapDensity="58.54" laneDensity="56.35" occupancy="26.17" waitingTime="0.00" timeLoss="15.78" speed="10.44" speedRelative="0.53" departed="2" arrived="0" entered="0" left="4" laneChangedFrom="0" laneChangedTo="0" flow="2065.82"/>
        <edge id="2/1to3/1" sampledSeconds="25.10" traveltime="5.37" overlapTraveltime="5.64" density="41.16" overlapDensity="43.52" laneDensity="41.16" occupancy="20.56" waitingTime="0.00" timeLoss="2.14" speed="17.93" speedRelative="0.91" departed="0" arrived="0" entered="4" left="5" laneChangedFrom="0" laneChangedTo="0" flow="2652.68"/>
        <edge id="3/1to4/1" sampledSeconds="24.01" traveltime="5.10" overlapTraveltime="5.36" density="39.44" overlapDensity="41.63" laneDensity="39.44" occupancy="19.67" waitingTime="0.00" timeLoss="0.90" speed="18.87" speedRelative="0.96" departed="0" arrived="0" entered="5" left="4" laneChangedFrom="0" laneChangedTo="0" flow="2675.57"/>
        <edge id="4/1to5/1" sampledSeconds="21.74" traveltime="4.95" overlapTraveltime="5.20" density="36.37" overlapDensity="37.70" laneDensity="36.37" occupancy="17.95" waitingTime="0.00" timeLoss="0.19" speed="19.43" speedRelative="0.99" departed="0" arrived="0" entered="5" left="3" laneChangedFrom="0" laneChangedTo="0" flow="2543.37"/>
        <edge id="5/1to6/1" sampledSeconds="6.46" traveltime="4.92" overlapTraveltime="5.18" density="11.20" overlapDensity="11.20" laneDensity="11.20" occupancy="5.26" waitingTime="0.00" timeLoss="0.03" speed="19.52" speedRelative="1.00" departed="0" arrived="0" entered="3" left="0" laneChangedFrom="0" laneChangedTo="0" flow="786.81"/>
    </interval>
    <interval begin="24.00" end="30.00" id="dump_6">
        <edge id="1/1to2/1" sampledSeconds="23.65" traveltime="9.67" overlapTraveltime="9.88" density="39.59" overlapDensity="41.00" laneDensity="39.59" occupancy="17.49" waitingTime="0.00" timeLoss="11.30" speed="10.24" speedRelative="0.52" departed="3" arrived="0" entered="0" left="3" laneChangedFrom="0" laneChangedTo="0" flow="1417.11"/>
        <edge id="2/1to3/1" sampledSeconds="21.87" traveltime="5.28" overlapTraveltime="5.55" density="36.02" overlapDensity="37.91" laneDensity="36.02" occupancy="18.13" waitingTime="0.00" timeLoss="1.53" speed="18.23" speedRelative="0.93" departed="0" arrived="0" entered="3" left="4" laneChangedFrom="0" laneChangedTo="0" flow="2363.17"/>
        <edge id="3/1to4/1" sampledSeconds="23.91" traveltime="5.15" overlapTraveltime="5.41" density="39.62" overlapDensity="41.45" laneDensity="39.62" occupancy="19.80" waitingTime="0.00" timeLoss="1.12" speed="18.68" speedRelative="0.95" departed="0" arrived="0" entered="4" left="4" laneChangedFrom="0" laneChangedTo="0" flow="2662.90"/>
        <edge id="4/1to5/1" sampledSeconds="23.35" traveltime="5.01" overlapTraveltime="5.27" density="38.49" overlapDensity="40.49" laneDensity="38.49" occupancy="19.32" waitingTime="0.00" timeLoss="0.49" speed="19.19" speedRelative="0.98" departed="0" arrived="0" entered="4" left="5" laneChangedFrom="0" laneChangedTo="0" flow="2657.67"/>
        <edge id="5/1to6/1" sampledSeconds="22.35" traveltime="4.94" overlapTraveltime="5.20" density="36.98" overlapDensity="38.75" laneDensity="36.98" occupancy="18.49" waitingTime="0.00" timeLoss="0.15" speed="19.47" speedRelative="0.99" departed="0" arrived="0" entered="4" left="4" laneChangedFrom="0" laneChangedTo="0" flow="2591.03"/>
        <edge id="6/1to7/1" sampledSeconds="9.53" traveltime="4.92" overlapTraveltime="5.18" density="16.52" overlapDensity="16.52" laneDensity="16.52" occupancy="7.82" waitingTime="0.00" timeLoss="0.04" speed="19.52" speedRelative="1.00" departed="0" arrived="0" entered="4" left="0" laneChangedFrom="0" laneChangedTo="0" flow="1160.97"/>
    </interval>
    <interval begin="30.00" end="36.00" id="dump_6">
        <edge id="1/1to2/1" sampledSeconds="23.18" traveltime="10.05" overlapTraveltime="10.34" density="39.29" overlapDensity="40.19" laneDensity="39.29" occupancy="16.98" waitingTime="0.00" timeLoss="11.61" speed="9.78" speedRelative="0.50" departed="2" arrived="0" entered="0" left="2" laneChangedFrom="0" laneChangedTo="0" flow="1352.90"/>
        <edge id="2/1to3/1" sampledSeconds="12.46" traveltime="4.96" overlapTraveltime="5.23" density="20.23" overlapDensity="21.60" laneDensity="20.23" occupancy="10.24" waitingTime="0.00" timeLoss="0.16" speed="19.35" speedRelative="0.99" departed="0" arrived="0" entered="2" left="3" laneChangedFrom="0" laneChangedTo="0" flow="1411.43"/>
        <edge id="3/1to4/1" sampledSeconds="21.05" traveltime="5.11" overlapTraveltime="5.38" density="34.20" overlapDensity="36.50" laneDensity="34.20" occupancy="17.33" waitingTime="0.00" timeLoss="0.85" speed="18.81" speedRelative="0.96" departed="0" arrived="0" entered="3" left="5" laneChangedFrom="0" laneChangedTo="0" flow="2315.03"/>
        <edge id="4/1to5/1" sampledSeconds="23.24" traveltime="5.04" overlapTraveltime="5.30" density="38.25" overlapDensity="40.29" laneDensity="38.25" occupancy="19.04" waitingTime="0.00" timeLoss="0.63" speed="19.07" speedRelative="0.97" departed="0" arrived="0" entered="5" left="4" laneChangedFrom="0" laneChangedTo="0" flow="2624.74"/>
        <edge id="5/1to6/1" sampledSeconds="23.02" traveltime="4.97" overlapTraveltime="5.23" density="38.13" overlapDensity="39.91" laneDensity="38.13" occupancy="18.95" waitingTime="0.00" timeLoss="0.30" speed="19.34" speedRelative="0.99" departed="0" arrived="0" entered="5" left="4" laneChangedFrom="0" laneChangedTo="0" flow="2654.26"/>
        <edge id="6/1to7/1" sampledSeconds="22.78" traveltime="4.93" overlapTraveltime="5.19" density="37.69" overlapDensity="39.49" laneDensity="37.69" occupancy="18.86" waitingTime="0.00" timeLoss="0.13" speed="19.49" speedRelative="0.99" departed="0" arrived="0" entered="4" left="5" laneChangedFrom="0" laneChangedTo="0" flow="2644.11"/>
        <edge id="7/1to8/1" sampledSeconds="13.01" traveltime="4.92" overlapTraveltime="5.18" density="22.11" overlapDensity="22.55" laneDensity="22.11" occupancy="10.72" waitingTime="0.00" timeLoss="0.05" speed="19.53" speedRelative="1.00" departed="0" arrived="0" entered="4" left="1" laneChangedFrom="0" laneChangedTo="0" flow="1554.67"/>
        <edge id="8/1to9/1" sampledSeconds="0.29" traveltime="4.92" overlapTraveltime="5.18" density="0.51" overlapDensity="0.51" laneDensity="0.51" occupancy="0.14" waitingTime="0.00" timeLoss="0.00" speed="19.53" speedRelative="1.00" departed="0" arrived="0" entered="1" left="0" laneChangedFrom="0" laneChangedTo="0" flow="35.55"/>
    </interval>
    <interval begin="36.00" end="42.00" id="dump_6">
        <edge id="1/1to2/1" sampledSeconds="23.12" traveltime="9.78" overlapTraveltime="10.07" density="39.20" overlapDensity="40.09" laneDensity="39.20" occupancy="17.10" waitingTime="0.00" timeLoss="11.28" speed="10.04" speedRelative="0.51" departed="2" arrived="0" entered="0" left="2" laneChangedFrom="0" laneChangedTo="0" flow="1386.53"/>
        <edge id="2/1to3/1" sampledSeconds="11.71" traveltime="4.92" overlapTraveltime="5.18" density="19.36" overlapDensity="20.30" laneDensity="19.36" occupancy="9.71" waitingTime="0.00" timeLoss="0.04" speed="19.53" speedRelative="1.00" departed="0" arrived="0" entered="2" left="3" laneChangedFrom="0" laneChangedTo="0" flow="1361.70"/>
        <edge id="3/1to4/1" sampledSeconds="12.11" traveltime="4.93" overlapTraveltime="5.19" density="19.80" overlapDensity="21.00" laneDensity="19.80" occupancy="10.00" waitingTime="0.00" timeLoss="0.08" speed="19.47" speedRelative="0.99" departed="0" arrived="0" entered="2" left="3" laneChangedFrom="0" laneChangedTo="0" flow="1388.93"/>
        <edge id="4/1to5/1" sampledSeconds="19.60" traveltime="5.03" overlapTraveltime="5.29" density="32.18" overlapDensity="33.99" laneDensity="32.18" occupancy="16.30" waitingTime="0.00" timeLoss="0.47" speed="19.13" speedRelative="0.98" departed="0" arrived="0" entered="3" left="4" laneChangedFrom="0" laneChangedTo="0" flow="2216.05"/>
        <edge id="5/1to6/1" sampledSeconds="23.10" traveltime="4.99" overlapTraveltime="5.25" density="37.99" overlapDensity="40.05" laneDensity="37.99" occupancy="19.09" waitingTime="0.00" timeLoss="0.39" speed="19.27" speedRelative="0.98" departed="0" arrived="0" entered="4" left="5" laneChangedFrom="0" laneChangedTo="0" flow="2635.02"/>
        <edge id="6/1to7/1" sampledSeconds="22.62" traveltime="4.95" overlapTraveltime="5.21" density="37.01" overlapDensity="39.21" laneDensity="37.01" occupancy="18.60" waitingTime="0.00" timeLoss="0.20" speed="19.43" speedRelative="0.99" departed="0" arrived="0" entered="4" left="4" laneChangedFrom="0" laneChangedTo="0" flow="2588.07"/>
        <edge id="7/1to8/1" sampledSeconds="22.59" traveltime="4.93" overlapTraveltime="5.19" density="37.40" overlapDensity="39.17" laneDensity="37.40" occupancy="18.59" waitingTime="0.00" timeLoss="0.11" speed="19.50" speedRelative="1.00" departed="0" arrived="0" entered="5" left="4" laneChangedFrom="0" laneChangedTo="0" flow="2625.47"/>
        <edge id="8/1to9/1" sampledSeconds="16.25" traveltime="4.92" overlapTraveltime="5.18" density="27.73" overlapDensity="28.17" laneDensity="27.73" occupancy="13.53" waitingTime="0.00" timeLoss="0.06" speed="19.53" speedRelative="1.00" departed="0" arrived="0" entered="4" left="1" laneChangedFrom="0" laneChangedTo="0" flow="1949.43"/>
        <edge id="9/1to10/1" sampledSeconds="1.22" traveltime="4.92" overlapTraveltime="5.18" density="2.11" overlapDensity="2.11" laneDensity="2.11" occupancy="0.94" waitingTime="0.00" timeLoss="0.00" speed="19.54" speedRelative="1.00" departed="0" arrived="0" entered="1" left="0" laneChangedFrom="0" laneChangedTo="0" flow="148.22"/>
    </interval>
    <interval begin="42.00" end="48.00" id="dump_6">
        <edge id="1/1to2/1" sampledSeconds="22.88" traveltime="9.77" overlapTraveltime="9.95" density="38.32" overlapDensity="39.66" laneDensity="38.32" occupancy="17.15" waitingTime="0.00" timeLoss="11.02" speed="10.16" speedRelative="0.52" departed="2" arrived="0" entered="0" left="3" laneChangedFrom="0" laneChangedTo="0" flow="1357.36"/>
        <edge id="10/1to1/1" sampledSeconds="2.90" traveltime="4.93" overlapTraveltime="5.18" density="5.02" overlapDensity="5.02" laneDensity="5.02" occupancy="2.29" waitingTime="0.00" timeLoss="0.01" speed="19.51" speedRelative="1.00" departed="0" arrived="0" entered="2" left="0" laneChangedFrom="0" laneChangedTo="0" flow="352.62"/>
        <edge id="2/1to3/1" sampledSeconds="11.68" traveltime="4.92" overlapTraveltime="5.18" density="18.97" overlapDensity="20.25" laneDensity="18.97" occupancy="9.46" waitingTime="0.00" timeLoss="0.04" speed="19.53" speedRelative="1.00" departed="0" arrived="0" entered="3" left="2" laneChangedFrom="0" laneChangedTo="0" flow="1334.12"/>
        <edge id="3/1to4/1" sampledSeconds="11.64" traveltime="4.92" overlapTraveltime="5.18" density="19.14" overlapDensity="20.17" laneDensity="19.14" occupancy="9.47" waitingTime="0.00" timeLoss="0.04" speed="19.53" speedRelative="1.00" departed="0" arrived="0" entered="3" left="2" laneChangedFrom="0" laneChangedTo="0" flow="1345.92"/>
        <edge id="4/1to5/1" sampledSeconds="12.17" traveltime="4.92" overlapTraveltime="5.18" density="19.77" overlapDensity="21.11" laneDensity="19.77" occupancy="9.90" waitingTime="0.00" timeLoss="0.05" speed="19.52" speedRelative="1.00" departed="0" arrived="0" entered="2" left="3" laneChangedFrom="0" laneChangedTo="0" flow="1389.28"/>
        <edge id="5/1to6/1" sampledSeconds="18.44" traveltime="4.97" overlapTraveltime="5.23" density="30.00" overlapDensity="31.98" laneDensity="30.00" occupancy="15.13" waitingTime="0.00" timeLoss="0.25" speed="19.33" speedRelative="0.99" departed="0" arrived="0" entered="3" left="4" laneChangedFrom="0" laneChangedTo="0" flow="2087.81"/>
        <edge id="6/1to7/1" sampledSeconds="22.93" traveltime="4.96" overlapTraveltime="5.22" density="37.97" overlapDensity="39.76" laneDensity="37.97" occupancy="18.87" waitingTime="0.00" timeLoss="0.27" speed="19.37" speedRelative="0.99" departed="0" arrived="0" entered="5" left="4" laneChangedFrom="0" laneChangedTo="0" flow="2647.58"/>
        <edge id="7/1to8/1" sampledSeconds="22.81" traveltime="4.94" overlapTraveltime="5.20" density="37.67" overlapDensity="39.54" laneDensity="37.67" occupancy="18.88" waitingTime="0.00" timeLoss="0.16" speed="19.46" speedRelative="0.99" departed="0" arrived="0" entered="4" left="5" laneChangedFrom="0" laneChangedTo="0" flow="2638.71"/>
        <edge id="8/1to9/1" sampledSeconds="22.48" traveltime="4.93" overlapTraveltime="5.18" density="36.76" overlapDensity="38.98" laneDensity="36.76" occupancy="18.49" waitingTime="0.00" timeLoss="0.11" speed="19.51" speedRelative="1.00" departed="0" arrived="0" entered="4" left="5" laneChangedFrom="0" laneChangedTo="0" flow="2581.17"/>
        <edge id="9/1to10/1" sampledSeconds="18.66" traveltime="4.92" overlapTraveltime="5.18" density="31.47" overlapDensity="32.35" laneDensity="31.47" occupancy="15.40" waitingTime="0.00" timeLoss="0.06" speed="19.53" speedRelative="1.00" departed="0" arrived="0" entered="5" left="2" laneChangedFrom="0" laneChangedTo="0" flow="2212.71"/>
    </interval>
    <interval begin="48.00" end="54.00" id="dump_6">
        <edge id="1/1to2/1" sampledSeconds="16.72" traveltime="6.94" overlapTraveltime="7.21" density="28.09" overlapDensity="28.98" laneDensity="28.09" occupancy="14.00" waitingTime="0.00" timeLoss="4.75" speed="14.03" speedRelative="0.72" departed="0" arrived="0" entered="2" left="2" laneChangedFrom="0" laneChangedTo="0" flow="1401.54"/>
        <edge id="10/1to1/1" sampledSeconds="21.26" traveltime="5.74" overlapTraveltime="6.05" density="35.76" overlapDensity="36.85" laneDensity="35.76" occupancy="17.66" waitingTime="0.00" timeLoss="3.11" speed="16.73" speedRelative="0.85" departed="0" arrived="0" entered="4" left="2" laneChangedFrom="0" laneChangedTo="0" flow="2157.05"/>
        <edge id="2/1to3/1" sampledSeconds="12.12" traveltime="4.92" overlapTraveltime="5.18" density="20.12" overlapDensity="21.01" laneDensity="20.12" occupancy="10.06" waitingTime="0.00" timeLoss="0.04" speed="19.53" speedRelative="1.00" departed="0" arrived="0" entered="2" left="2" laneChangedFrom="0" laneChangedTo="0" flow="1415.08"/>
        <edge id="3/1to4/1" sampledSeconds="11.76" traveltime="4.92" overlapTraveltime="5.18" density="19.50" overlapDensity="20.39" laneDensity="19.50" occupancy="9.75" waitingTime="0.00" timeLoss="0.04" speed="19.53" speedRelative="1.00" departed="0" arrived="0" entered="2" left="2" laneChangedFrom="0" laneChangedTo="0" flow="1371.01"/>
        <edge id="4/1to5/1" sampledSeconds="11.68" traveltime="4.92" overlapTraveltime="5.18" density="19.36" overlapDensity="20.25" laneDensity="19.36" occupancy="9.68" waitingTime="0.00" timeLoss="0.04" speed="19.54" speedRelative="1.00" departed="0" arrived="0" entered="2" left="2" laneChangedFrom="0" laneChangedTo="0" flow="1361.59"/>
        <edge id="5/1to6/1" sampledSeconds="11.74" traveltime="4.92" overlapTraveltime="5.18" density="19.46" overlapDensity="20.35" laneDensity="19.46" occupancy="9.73" waitingTime="0.00" timeLoss="0.04" speed="19.53" speedRelative="1.00" departed="0" arrived="0" entered="2" left="2" laneChangedFrom="0" laneChangedTo="0" flow="1368.72"/>
        <edge id="6/1to7/1" sampledSeconds="17.07" traveltime="4.96" overlapTraveltime="5.22" density="27.79" overlapDensity="29.59" laneDensity="27.79" occupancy="14.12" waitingTime="0.00" timeLoss="0.20" speed="19.37" speedRelative="0.99" departed="0" arrived="0" entered="2" left="4" laneChangedFrom="0" laneChangedTo="0" flow="1939.24"/>
        <edge id="7/1to8/1" sampledSeconds="22.71" traveltime="5.04" overlapTraveltime="5.31" density="37.18" overlapDensity="39.37" laneDensity="37.18" occupancy="18.67" waitingTime="0.00" timeLoss="0.62" speed="19.06" speedRelative="0.97" departed="0" arrived="0" entered="4" left="4" laneChangedFrom="0" laneChangedTo="0" flow="2552.37"/>
        <edge id="8/1to9/1" sampledSeconds="22.87" traveltime="5.13" overlapTraveltime="5.40" density="37.77" overlapDensity="39.66" laneDensity="37.77" occupancy="18.79" waitingTime="0.00" timeLoss="1.01" speed="18.74" speedRelative="0.96" departed="0" arrived="0" entered="5" left="4" laneChangedFrom="0" laneChangedTo="0" flow="2550.31"/>
        <edge id="9/1to10/1" sampledSeconds="23.12" traveltime="5.32" overlapTraveltime="5.60" density="38.11" overlapDensity="40.09" laneDensity="38.11" occupancy="19.08" waitingTime="0.00" timeLoss="1.83" speed="18.04" speedRelative="0.92" departed="0" arrived="0" entered="4" left="4" laneChangedFrom="0" laneChangedTo="0" flow="2479.31"/>
    </interval>
    <interval begin="54.00" end="60.00" id="dump_6">
        <edge id="1/1to2/1" sampledSeconds="23.16" traveltime="5.13" overlapTraveltime="5.39" density="38.36" overlapDensity="40.16" laneDensity="38.36" occupancy="19.16" waitingTime="0.00" timeLoss="0.98" speed="18.77" speedRelative="0.96" departed="0" arrived="0" entered="4" left="4" laneChangedFrom="0" laneChangedTo="0" flow="2588.70"/>
        <edge id="10/1to1/1" sampledSeconds="23.85" traveltime="5.26" overlapTraveltime="5.53" density="39.19" overlapDensity="41.34" laneDensity="39.19" occupancy="19.68" waitingTime="0.00" timeLoss="1.61" speed="18.28" speedRelative="0.93" departed="0" arrived="0" entered="4" left="5" laneChangedFrom="0" laneChangedTo="0" flow="2577.58"/>
        <edge id="2/1to3/1" sampledSeconds="14.35" traveltime="4.93" overlapTraveltime="5.18" density="23.99" overlapDensity="24.88" laneDensity="23.99" occupancy="11.78" waitingTime="0.00" timeLoss="0.07" speed="19.51" speedRelative="1.00" departed="0" arrived="0" entered="4" left="2" laneChangedFrom="0" laneChangedTo="0" flow="1685.24"/>
        <edge id="3/1to4/1" sampledSeconds="12.12" traveltime="4.92" overlapTraveltime="5.18" density="20.12" overlapDensity="21.01" laneDensity="20.12" occupancy="10.06" waitingTime="0.00" timeLoss="0.04" speed="19.54" speedRelative="1.00" departed="0" arrived="0" entered="2" left="2" laneChangedFrom="0" laneChangedTo="0" flow="1415.30"/>
        <edge id="4/1to5/1" sampledSeconds="11.76" traveltime="4.92" overlapTraveltime="5.18" density="19.50" overlapDensity="20.38" laneDensity="19.50" occupancy="9.75" waitingTime="0.00" timeLoss="0.04" speed="19.54" speedRelative="1.00" departed="0" arrived="0" entered="2" left="2" laneChangedFrom="0" laneChangedTo="0" flow="1371.55"/>
        <edge id="5/1to6/1" sampledSeconds="11.68" traveltime="4.92" overlapTraveltime="5.18" density="19.36" overlapDensity="20.25" laneDensity="19.36" occupancy="9.68" waitingTime="0.00" timeLoss="0.04" speed="19.53" speedRelative="1.00" departed="0" arrived="0" entered="2" left="2" laneChangedFrom="0" laneChangedTo="0" flow="1361.28"/>
        <edge id="6/1to7/1" sampledSeconds="11.74" traveltime="4.92" overlapTraveltime="5.18" density="19.08" overlapDensity="20.35" laneDensity="19.08" occupancy="9.65" waitingTime="0.00" timeLoss="0.04" speed="19.54" speedRelative="1.00" departed="0" arrived="0" entered="2" left="3" laneChangedFrom="0" laneChangedTo="0" flow="1342.23"/>
        <edge id="7/1to8/1" sampledSeconds="15.95" traveltime="5.03" overlapTraveltime="5.30" density="25.80" overlapDensity="27.65" laneDensity="25.80" occupancy="13.09" waitingTime="0.00" timeLoss="0.41" speed="19.10" speedRelative="0.97" departed="0" arrived="0" entered="3" left="4" laneChangedFrom="0" laneChangedTo="0" flow="1775.96"/>
        <edge id="8/1to9/1" sampledSeconds="23.04" traveltime="5.19" overlapTraveltime="5.47" density="38.06" overlapDensity="39.95" laneDensity="38.06" occupancy="19.04" waitingTime="0.00" timeLoss="1.29" speed="18.50" speedRelative="0.94" departed="0" arrived="0" entered="4" left="4" laneChangedFrom="0" laneChangedTo="0" flow="2535.78"/>
        <edge id="9/1to10/1" sampledSeconds="23.52" traveltime="5.25" overlapTraveltime="5.53" density="38.87" overlapDensity="40.77" laneDensity="38.87" occupancy="19.44" waitingTime="0.00" timeLoss="1.57" speed="18.29" speedRelative="0.93" departed="0" arrived="0" entered="4" left="4" laneChangedFrom="0" laneChangedTo="0" flow="2559.76"/>
    </interval>
    <interval begin="60.00" end="66.00" id="dump_6">
        <edge id="1/1to2/1" sampledSeconds="23.37" traveltime="5.06" overlapTraveltime="5.33" density="38.70" overlapDensity="40.51" laneDensity="38.70" occupancy="19.23" waitingTime="0.00" timeLoss="0.73" speed="18.99" speedRelative="0.97" departed="0" arrived="0" entered="5" left="4" laneChangedFrom="0" laneChangedTo="0" flow="2644.41"/>
        <edge id="10/1to1/1" sampledSeconds="23.30" traveltime="5.12" overlapTraveltime="5.39" density="38.36" overlapDensity="40.39" laneDensity="38.36" occupancy="19.08" waitingTime="0.00" timeLoss="0.99" speed="18.77" speedRelative="0.96" departed="0" arrived="0" entered="5" left="4" laneChangedFrom="0" laneChangedTo="0" flow="2591.11"/>
        <edge id="2/1to3/1" sampledSeconds="23.14" traveltime="4.98" overlapTraveltime="5.23" density="38.35" overlapDensity="40.13" laneDensity="38.35" occupancy="19.16" waitingTime="0.00" timeLoss="0.32" speed="19.33" speedRelative="0.99" departed="0" arrived="0" entered="4" left="4" laneChangedFrom="0" laneChangedTo="0" flow="2666.83"/>
        <edge id="3/1to4/1" sampledSeconds="16.07" traveltime="4.93" overlapTraveltime="5.18" density="26.53" overlapDensity="27.86" laneDensity="26.53" occupancy="13.15" waitingTime="0.00" timeLoss="0.07" speed="19.52" speedRelative="1.00" departed="0" arrived="0" entered="4" left="3" laneChangedFrom="0" laneChangedTo="0" flow="1864.14"/>
        <edge id="4/1to5/1" sampledSeconds="11.83" traveltime="4.92" overlapTraveltime="5.18" density="19.18" overlapDensity="20.51" laneDensity="19.18" occupancy="9.62" waitingTime="0.00" timeLoss="0.04" speed="19.54" speedRelative="1.00" departed="0" arrived="0" entered="3" left="3" laneChangedFrom="0" laneChangedTo="0" flow="1349.32"/>
        <edge id="5/1to6/1" sampledSeconds="11.94" traveltime="4.92" overlapTraveltime="5.18" density="19.38" overlapDensity="20.71" laneDensity="19.38" occupancy="9.69" waitingTime="0.00" timeLoss="0.04" speed="19.53" speedRelative="1.00" departed="0" arrived="0" entered="3" left="3" laneChangedFrom="0" laneChangedTo="0" flow="1362.31"/>
        <edge id="6/1to7/1" sampledSeconds="11.57" traveltime="4.92" overlapTraveltime="5.18" density="19.12" overlapDensity="20.07" laneDensity="19.12" occupancy="9.45" waitingTime="0.00" timeLoss="0.04" speed="19.54" speedRelative="1.00" departed="0" arrived="0" entered="3" left="2" laneChangedFrom="0" laneChangedTo="0" flow="1344.32"/>
        <edge id="7/1to8/1" sampledSeconds="11.71" traveltime="4.92" overlapTraveltime="5.18" density="19.41" overlapDensity="20.30" laneDensity="19.41" occupancy="9.64" waitingTime="0.00" timeLoss="0.04" speed="19.54" speedRelative="1.00" departed="0" arrived="0" entered="2" left="2" laneChangedFrom="0" laneChangedTo="0" flow="1365.48"/>
        <edge id="8/1to9/1" sampledSeconds="15.47" traveltime="5.02" overlapTraveltime="5.29" density="24.97" overlapDensity="26.82" laneDensity="24.97" occupancy="12.72" waitingTime="0.00" timeLoss="0.39" speed="19.11" speedRelative="0.97" departed="0" arrived="0" entered="2" left="4" laneChangedFrom="0" laneChangedTo="0" flow="1719.98"/>
        <edge id="9/1to10/1" sampledSeconds="23.19" traveltime="5.14" overlapTraveltime="5.41" density="37.90" overlapDensity="40.21" laneDensity="37.90" occupancy="19.06" waitingTime="0.00" timeLoss="1.07" speed="18.70" speedRelative="0.95" departed="0" arrived="0" entered="4" left="5" laneChangedFrom="0" laneChangedTo="0" flow="2550.62"/>
    </interval>
    <interval begin="66.00" end="72.00" id="dump_6">
        <edge id="1/1to2/1" sampledSeconds="23.23" traveltime="5.04" overlapTraveltime="5.31" density="38.35" overlapDensity="40.27" laneDensity="38.35" occupancy="19.22" waitingTime="0.00" timeLoss="0.64" speed="19.06" speedRelative="0.97" departed="0" arrived="0" entered="4" left="5" laneChangedFrom="0" laneChangedTo="0" flow="2631.19"/>
        <edge id="10/1to1/1" sampledSeconds="22.57" traveltime="5.08" overlapTraveltime="5.34" density="37.31" overlapDensity="39.14" laneDensity="37.31" occupancy="18.76" waitingTime="0.00" timeLoss="0.78" speed="18.92" speedRelative="0.97" departed="0" arrived="0" entered="3" left="4" laneChangedFrom="0" laneChangedTo="0" flow="2541.16"/>
        <edge id="2/1to3/1" sampledSeconds="22.98" traveltime="5.00" overlapTraveltime="5.25" density="37.59" overlapDensity="39.84" laneDensity="37.59" occupancy="18.91" waitingTime="0.00" timeLoss="0.41" speed="19.25" speedRelative="0.98" departed="0" arrived="0" entered="4" left="5" laneChangedFrom="0" laneChangedTo="0" flow="2604.50"/>