<?xml version="1.0" encoding="UTF-8"?>

<!-- generated on 2026-04-24T09:19:06.006225+01:00 by Eclipse SUMO sumo v1_26_0+1366-8b27a71a755
<sumoConfiguration xmlns:xsi="http://www.w3.org/2001/XMLSchema-instance" xsi:noNamespaceSchemaLocation="http://sumo.dlr.de/xsd/sumoConfiguration.xsd">

    <input>
        <net-file value="net.net.xml"/>
        <route-files value="input_routes.rou.xml,input_routes2.rou.xml"/>
    </input>

    <output>
        <tripinfo-output value="tripinfo.xml"/>
        <tripinfo-output.write-unfinished value="true"/>
        <vehroute-output value="vehroutes.xml"/>
        <vehroute-output.write-unfinished value="true"/>
        <save-state.times value="60"/>
        <save-state.files value="state.xml"/>
        <save-state.rng value="true"/>
        <save-state.transportables value="true"/>
        <save-state.precision value="6"/>
    </output>

    <processing>
        <default.departspeed value="0"/>
        <default.departlane value="first"/>
    </processing>

    <report>
        <duration-log.statistics value="true"/>
        <no-step-log value="true"/>
    </report>

    <taxi_device>
        <device.taxi.dispatch-algorithm.output value="dispatchinfos.xml"/>
    </taxi_device>

    <mesoscopic>
        <mesosim value="true"/>
    </mesoscopic>

</sumoConfiguration>
-->

<snapshot type="meso" version="v1_26_0+1366-8b27a71a755" time="60.000" xmlns:xsi="http://www.w3.org/2001/XMLSchema-instance" xsi:noNamespaceSchemaLocation="http://sumo.dlr.de/xsd/state_file.xsd">
    <rngState default="0" routeHandler="20" insertionControl="0" device="0" device.btreceiver="0" driverState="0" device.toc="0">
        <rngLane index="0" state="0"/>
        <rngLane index="1" state="0"/>
        <rngLane index="2" state="0"/>
        <rngLane index="3" state="0"/>
        <rngLane index="4" state="0"/>
        <rngLane index="5" state="0"/>
        <rngLane index="6" state="0"/>
        <rngLane index="7" state="0"/>
        <rngLane index="8" state="0"/>
        <rngLane index="9" state="0"/>
        <rngLane index="10" state="0"/>
        <rngLane index="11" state="0"/>
        <rngLane index="12" state="0"/>
        <rngLane index="13" state="0"/>
        <rngLane index="14" state="0"/>
        <rngLane index="15" state="0"/>
        <rngLane index="16" state="0"/>
        <rngLane index="17" state="0"/>
        <rngLane index="18" state="0"/>
        <rngLane index="19" state="0"/>
        <rngLane index="20" state="0"/>
        <rngLane index="21" state="0"/>
        <rngLane index="22" state="0"/>
        <rngLane index="23" state="0"/>
        <rngLane index="24" state="0"/>
        <rngLane index="25" state="0"/>
        <rngLane index="26" state="0"/>
        <rngLane index="27" state="0"/>
        <rngLane index="28" state="0"/>
        <rngLane index="29" state="0"/>
        <rngLane index="30" state="0"/>
        <rngLane index="31" state="0"/>
        <rngLane index="32" state="0"/>
        <rngLane index="33" state="0"/>
        <rngLane index="34" state="0"/>
        <rngLane index="35" state="0"/>
        <rngLane index="36" state="0"/>
        <rngLane index="37" state="0"/>
        <rngLane index="38" state="0"/>
        <rngLane index="39" state="0"/>
        <rngLane index="40" state="0"/>
        <rngLane index="41" state="0"/>
        <rngLane index="42" state="0"/>
        <rngLane index="43" state="0"/>
        <rngLane index="44" state="0"/>
        <rngLane index="45" state="0"/>
        <rngLane index="46" state="0"/>
        <rngLane index="47" state="0"/>
        <rngLane index="48" state="0"/>
        <rngLane index="49" state="0"/>
        <rngLane index="50" state="0"/>
        <rngLane index="51" state="0"/>
        <rngLane index="52" state="0"/>
        <rngLane index="53" state="0"/>
        <rngLane index="54" state="0"/>
        <rngLane index="55" state="0"/>
        <rngLane index="56" state="0"/>
        <rngLane index="57" state="0"/>
        <rngLane index="58" state="0"/>
        <rngLane index="59" state="0"/>
        <rngLane index="60" state="0"/>
        <rngLane index="61" state="0"/>
        <rngLane index="62" state="0"/>
        <rngLane index="63" state="0"/>
    </rngState>
    <dispatcher next="60000" count="2" customers="p0.0 0 p0.1 0 p0.2 0 p1.0 1 p1.1 1 p1.2 1 "/>
    <route id="!trip_0!var#1" state="0" edges="A0B0 B0C0 C0C1 C1C2 C2B2 B2B1 B1B0 B0C0"/>
    <route id="!trip_1!var#1" state="0" edges="A2B2 B2B1 B1C1 C1C2 C2B2 B2A2 A2A1 A1A0 A0B0"/>
    <delay number="2" begin="2" end="0" depart="0.000000" time="0.000000" speedFactor="1.030000" decel="4.500000"/>
    <vType id="DEFAULT_PEDTYPE" vClass="pedestrian"/>
    <vType id="taxi" vClass="taxi" boardingDuration="2.000">
        <param key="device.taxi.parking" value="false"/>
        <param key="has.taxi.device" value="true"/>
    </vType>
    <vehicle id="trip_0" type="taxi" depart="0.000" departSpeed="avg" route="!trip_0!var#1" distance="1488.8 3" speedFactor="1.030000" reroute="1" line="taxi" state="262162 0 4 0 0 0 63105 56451 9223372036854774807 0 1">
        <stop lane="C1C2_1" startPos="0.000000" endPos="5.000000" duration="0.000" triggered="person" parking="0" permitted="p0.0 p0.1 p0.2" actType="pickup p0.0 p0.1 p0.2 (0)" started="48.476" ended="56.000"/>
        <stop lane="B0C0_1" startPos="285.600000" endPos="285.600000" duration="60.000" parking="0" actType="dropOff p0.0 p0.1 p0.2 (0)"/>
        <device id="vehroute_trip_0" state="14.306322 0.000000 3 !NULL 0 !trip_0 device.rerouting -1 0 A0B0 0 !trip_0!var#1 taxi:prepare_dispatch 0 0 A0B0 0 !trip_0!var#2 taxi:dispatch 0 0"/>
        <device id="tripinfo_trip_0" state="A0B0_1 14.3063 793.32 0 0 0 1000 -1 -1000 NONE -1 0 -1"/>
        <device id="routing_trip_0" state="0 0"/>
        <device id="taxi_trip_0" state="2 0 99.79 7975" customers="p0.0 p0.1 p0.2" reservations="0"/>
        <device id="person_trip_0" state="0 0 0"/>
    </vehicle>
    <vehicle id="trip_1" type="taxi" depart="0.000" departSpeed="avg" route="!trip_1!var#1" distance="1403.2 3" speedFactor="0.969200" reroute="1" line="taxi" state="262162 0 3 0 0 0 59516 58462 9223372036854774807 0 1">
        <stop lane="C1C2_1" startPos="0.000000" endPos="5.000000" duration="0.000" triggered="person" parking="0" permitted="p1.0 p1.1 p1.2" actType="pickup p1.0 p1.1 p1.2 (1)" started="51.103" ended="59.000"/>
        <stop lane="A0B0_1" startPos="287.600000" endPos="287.600000" duration="60.000" parking="0" actType="dropOff p1.0 p1.1 p1.2 (1)"/>
        <device id="vehroute_trip_1" state="13.462188 0.000000 3 !NULL 0 !trip_1 device.rerouting -1 0 A2B2 0 !trip_1!var#1 taxi:prepare_dispatch 0 0 A2B2 0 !trip_1!var#2 taxi:dispatch 0 0"/>
        <device id="tripinfo_trip_1" state="A2B2_1 13.4622 773.55 0 0 0 1000 -1 -1000 NONE -1 0 -1"/>
        <device id="routing_trip_1" state="0 0"/>
        <device id="taxi_trip_1" state="2 0 85.6 7359" customers="p1.0 p1.1 p1.2" reservations="1"/>
        <device id="person_trip_1" state="0 0 0"/>
    </vehicle>
    <transportables type="person" state="6 6 0 0 0 0 0 0 0 0">
        <person id="p0.0" type="DEFAULT_PEDTYPE" depart="0.000" speedFactor="1.010400" state="192 1 0 0 -1 1 50017 trip_0 1317.6">
            <ride from="C1C2" to="B0C0" lines="taxi"/>
        </person>
        <person id="p0.1" type="DEFAULT_PEDTYPE" depart="0.000" speedFactor="1.082700" state="192 1 0 0 -1 1 50017 trip_0 1317.6">
            <ride from="C1C2" to="B0C0" lines="taxi"/>
        </person>
        <person id="p0.2" type="DEFAULT_PEDTYPE" depart="0.000" speedFactor="1.030300" state="192 1 0 0 -1 1 50017 trip_0 1317.6">
            <ride from="C1C2" to="B0C0" lines="taxi"/>
        </person>
        <person id="p1.0" type="DEFAULT_PEDTYPE" depart="0.000" speedFactor="0.831000" state="192 1 0 0 -1 1 52641 trip_1 1317.6">
            <ride from="C1C2" to="A0B0" lines="taxi"/>
        </person>
        <person id="p1.1" type="DEFAULT_PEDTYPE" depart="0.000" speedFactor="1.045800" state="192 1 0 0 -1 1 52641 trip_1 1317.6">
            <ride from="C1C2" to="A0B0" lines="taxi"/>
        </person>
        <person id="p1.2" type="DEFAULT_PEDTYPE" depart="0.000" speedFactor="0.886000" state="192 1 0 0 -1 1 52641 trip_1 1317.6">
            <ride from="C1C2" to="A0B0" lines="taxi"/>
        </person>
    </transportables>
    <segment id=":B0_6:0">
        <vehicles time="22779" blockTime="21771" value=""/>
    </segment>
    <segment id=":B1_2:0">
        <vehicles time="30900" blockTime="30459" value=""/>
    </segment>
    <segment id=":B2_6:0">
        <vehicles time="24316" blockTime="23644" value=""/>
    </segment>
    <segment id=":C0_7:0">
        <vehicles time="43553" blockTime="43138" value=""/>
    </segment>
    <segment id=":C1_9:0">
        <vehicles time="50145" blockTime="49137" value=""/>
    </segment>
    <segment id=":C1_14:0">
        <vehicles time="53170" blockTime="52115" value=""/>
    </segment>
    <segment id=":C2_4:0">
        <vehicles time="58518" blockTime="60528" value="trip_1"/>
    </segment>
    <segment id="A0B0:0">
        <vehicles time="8370" blockTime="-9223372036854775808" value=""/>
    </segment>
    <segment id="A0B0:1">
        <vehicles time="15071" blockTime="8369" value=""/>
    </segment>
    <segment id="A0B0:2">
        <vehicles time="-1" blockTime="-9223372036854775808" value=""/>
        <vehicles time="21772" blockTime="15070" value=""/>
    </segment>
    <segment id="A2B2:0">
        <vehicles time="8790" blockTime="-9223372036854775808" value=""/>
    </segment>
    <segment id="A2B2:1">
        <vehicles time="15911" blockTime="8789" value=""/>
    </segment>
    <segment id="A2B2:2">
        <vehicles time="-1" blockTime="-9223372036854775808" value=""/>
        <vehicles time="23032" blockTime="15910" value=""/>
    </segment>
    <segment id="B0C0:0">
        <vehicles time="29433" blockTime="22778" value=""/>
    </segment>
    <segment id="B0C0:1">
        <vehicles time="36087" blockTime="29432" value=""/>
    </segment>
    <segment id="B0C0:2">
        <vehicles time="-1" blockTime="-9223372036854775808" value=""/>
        <vehicles time="42741" blockTime="36086" value=""/>
    </segment>
    <segment id="B1C1:0">
        <vehicles time="37574" blockTime="30501" value=""/>
    </segment>
    <segment id="B1C1:1">
        <vehicles time="44646" blockTime="37573" value=""/>
    </segment>
    <segment id="B1C1:2">
        <vehicles time="-1" blockTime="-9223372036854775808" value=""/>
        <vehicles time="51718" blockTime="44645" value=""/>
    </segment>
    <segment id="B2B1:0">
        <vehicles time="-1" blockTime="-9223372036854775808" value=""/>
        <vehicles time="30062" blockTime="23702" value=""/>
    </segment>
    <segment id="C0C1:0">
        <vehicles time="-1" blockTime="-9223372036854775808" value=""/>
        <vehicles time="49138" blockTime="43154" value=""/>
    </segment>
    <segment id="C1C2:0">
        <vehicles time="-1" blockTime="-9223372036854775808" value=""/>
        <vehicles time="60131" blockTime="52771" value=""/>
    </segment>
    <segment id="C2B2:0">
        <vehicles time="-1" blockTime="58119" value="trip_0"/>
    </segment>
    <routingEngine last="59000" index="60">
        <edge id=":B0_6" speed="13.892277" pastSpeed="13.890000 13.890000 13.890000 13.890000 13.890000 13.890000 13.890000 13.890000 13.890000 13.890000 13.890000 13.890000 13.890000 13.890000 13.890000 13.890000 13.890000 13.890000 13.890000 13.890000 13.890000 14.299901 13.890000 13.890000 13.890000 13.890000 13.890000 13.890000 13.890000 13.890000 13.890000 13.890000 13.890000 13.890000 13.890000 13.890000 13.890000 13.890000 13.890000 13.890000 13.890000 13.890000 13.890000 13.890000 13.890000 13.890000 13.890000 13.890000 13.890000 13.890000 13.890000 13.890000 13.890000 13.890000 13.890000 13.890000 13.890000 13.890000 13.890000 13.890000 13.890000 13.890000 13.890000 13.890000 13.890000 13.890000 13.890000 13.890000 13.890000 13.890000 13.890000 13.890000 13.890000 13.890000 13.890000 13.890000 13.890000 13.890000 13.890000 13.890000 13.890000 13.890000 13.890000 13.890000 13.890000 13.890000 13.890000 13.890000 13.890000 13.890000 13.890000 13.890000 13.890000 13.890000 13.890000 13.890000 13.890000 13.890000 13.890000 13.890000 13.890000 13.890000 13.890000 13.890000 13.890000 13.890000 13.890000 13.890000 13.890000 13.890000 13.890000 13.890000 13.890000 13.890000 13.890000 13.890000 13.890000 13.890000 13.890000 13.890000 13.890000 13.890000 13.890000 13.890000 13.890000 13.890000 13.890000 13.890000 13.890000 13.890000 13.890000 13.890000 13.890000 13.890000 13.890000 13.890000 13.890000 13.890000 13.890000 13.890000 13.890000 13.890000 13.890000 13.890000 13.890000 13.890000 13.890000 13.890000 13.890000 13.890000 13.890000 13.890000 13.890000 13.890000 13.890000 13.890000 13.890000 13.890000 13.890000 13.890000 13.890000 13.890000 13.890000 13.890000 13.890000 13.890000 13.890000 13.890000 13.890000 13.890000 13.890000 13.890000 13.890000 13.890000 13.890000 13.890000 13.890000 13.890000 13.890000 13.890000"/>
        <edge id=":B1_2" speed="2.645845" pastSpeed="2.645845 2.645845 2.645845 2.645845 2.645845 2.645845 2.645845 2.645845 2.645845 2.645845 2.645845 2.645845 2.645845 2.645845 2.645845 2.645845 2.645845 2.645845 2.645845 2.645845 2.645845 2.645845 2.645845 2.645845 2.645845 2.645845 2.645845 2.645845 2.645845 2.645845 2.645845 2.645845 2.645845 2.645845 2.645845 2.645845 2.645845 2.645845 2.645845 2.645845 2.645845 2.645845 2.645845 2.645845 2.645845 2.645845 2.645845 2.645845 2.645845 2.645845 2.645845 2.645845 2.645845 2.645845 2.645845 2.645845 2.645845 2.645845 2.645845 2.645845 2.645845 2.645845 2.645845 2.645845 2.645845 2.645845 2.645845 2.645845 2.645845 2.645845 2.645845 2.645845 2.645845 2.645845 2.645845 2.645845 2.645845 2.645845 2.645845 2.645845 2.645845 2.645845 2.645845 2.645845 2.645845 2.645845 2.645845 2.645845 2.645845 2.645845 2.645845 2.645845 2.645845 2.645845 2.645845 2.645845 2.645845 2.645845 2.645845 2.645845 2.645845 2.645845 2.645845 2.645845 2.645845 2.645845 2.645845 2.645845 2.645845 2.645845 2.645845 2.645845 2.645845 2.645845 2.645845 2.645845 2.645845 2.645845 2.645845 2.645845 2.645845 2.645845 2.645845 2.645845 2.645845 2.645845 2.645845 2.645845 2.645845 2.645845 2.645845 2.645845 2.645845 2.645845 2.645845 2.645845 2.645845 2.645845 2.645845 2.645845 2.645845 2.645845 2.645845 2.645845 2.645845 2.645845 2.645845 2.645845 2.645845 2.645845 2.645845 2.645845 2.645845 2.645845 2.645845 2.645845 2.645845 2.645845 2.645845 2.645845 2.645845 2.645845 2.645845 2.645845 2.645845 2.645845 2.645845 2.645845 2.645845 2.645845 2.645845 2.645845 2.645845 2.645845 2.645845 2.645845 2.645845 2.645845 2.645845 2.645845"/>
        <edge id=":B2_6" speed="6.548597" pastSpeed="6.510000 6.510000 6.510000 6.510000 6.510000 6.510000 6.510000 6.510000 6.510000 6.510000 6.510000 6.510000 6.510000 6.510000 6.510000 6.510000 6.510000 6.510000 6.510000 6.510000 6.510000 6.510000 13.457526 6.510000 6.510000 6.510000 6.510000 6.510000 6.510000 6.510000 6.510000 6.510000 6.510000 6.510000 6.510000 6.510000 6.510000 6.510000 6.510000 6.510000 6.510000 6.510000 6.510000 6.510000 6.510000 6.510000 6.510000 6.510000 6.510000 6.510000 6.510000 6.510000 6.510000 6.510000 6.510000 6.510000 6.510000 6.510000 6.510000 6.510000 6.510000 6.510000 6.510000 6.510000 6.510000 6.510000 6.510000 6.510000 6.510000 6.510000 6.510000 6.510000 6.510000 6.510000 6.510000 6.510000 6.510000 6.510000 6.510000 6.510000 6.510000 6.510000 6.510000 6.510000 6.510000 6.510000 6.510000 6.510000 6.510000 6.510000 6.510000 6.510000 6.510000 6.510000 6.510000 6.510000 6.510000 6.510000 6.510000 6.510000 6.510000 6.510000 6.510000 6.510000 6.510000 6.510000 6.510000 6.510000 6.510000 6.510000 6.510000 6.510000 6.510000 6.510000 6.510000 6.510000 6.510000 6.510000 6.510000 6.510000 6.510000 6.510000 6.510000 6.510000 6.510000 6.510000 6.510000 6.510000 6.510000 6.510000 6.510000 6.510000 6.510000 6.510000 6.510000 6.510000 6.510000 6.510000 6.510000 6.510000 6.510000 6.510000 6.510000 6.510000 6.510000 6.510000 6.510000 6.510000 6.510000 6.510000 6.510000 6.510000 6.510000 6.510000 6.510000 6.510000 6.510000 6.510000 6.510000 6.510000 6.510000 6.510000 6.510000 6.510000 6.510000 6.510000 6.510000 6.510000 6.510000 6.510000 6.510000 6.510000 6.510000 6.510000 6.510000 6.510000 6.510000 6.510000 6.510000 6.510000"/>
        <edge id=":C0_7" speed="2.645845" pastSpeed="2.645845 2.645845 2.645845 2.645845 2.645845 2.645845 2.645845 2.645845 2.645845 2.645845 2.645845 2.645845 2.645845 2.645845 2.645845 2.645845 2.645845 2.645845 2.645845 2.645845 2.645845 2.645845 2.645845 2.645845 2.645845 2.645845 2.645845 2.645845 2.645845 2.645845 2.645845 2.645845 2.645845 2.645845 2.645845 2.645845 2.645845 2.645845 2.645845 2.645845 2.645845 2.645845 2.645845 2.645845 2.645845 2.645845 2.645845 2.645845 2.645845 2.645845 2.645845 2.645845 2.645845 2.645845 2.645845 2.645845 2.645845 2.645845 2.645845 2.645845 2.645845 2.645845 2.645845 2.645845 2.645845 2.645845 2.645845 2.645845 2.645845 2.645845 2.645845 2.645845 2.645845 2.645845 2.645845 2.645845 2.645845 2.645845 2.645845 2.645845 2.645845 2.645845 2.645845 2.645845 2.645845 2.645845 2.645845 2.645845 2.645845 2.645845 2.645845 2.645845 2.645845 2.645845 2.645845 2.645845 2.645845 2.645845 2.645845 2.645845 2.645845 2.645845 2.645845 2.645845 2.645845 2.645845 2.645845 2.645845 2.645845 2.645845 2.645845 2.645845 2.645845 2.645845 2.645845 2.645845 2.645845 2.645845 2.645845 2.645845 2.645845 2.645845 2.645845 2.645845 2.645845 2.645845 2.645845 2.645845 2.645845 2.645845 2.645845 2.645845 2.645845 2.645845 2.645845 2.645845 2.645845 2.645845 2.645845 2.645845 2.645845 2.645845 2.645845 2.645845 2.645845 2.645845 2.645845 2.645845 2.645845 2.645845 2.645845 2.645845 2.645845 2.645845 2.645845 2.645845 2.645845 2.645845 2.645845 2.645845 2.645845 2.645845 2.645845 2.645845 2.645845 2.645845 2.645845 2.645845 2.645845 2.645845 2.645845 2.645845 2.645845 2.645845 2.645845 2.645845 2.645845 2.645845 2.645845 2.645845"/>
        <edge id=":C1_9" speed="13.892277" pastSpeed="13.890000 13.890000 13.890000 13.890000 13.890000 13.890000 13.890000 13.890000 13.890000 13.890000 13.890000 13.890000 13.890000 13.890000 13.890000 13.890000 13.890000 13.890000 13.890000 13.890000 13.890000 13.890000 13.890000 13.890000 13.890000 13.890000 13.890000 13.890000 13.890000 13.890000 13.890000 13.890000 13.890000 13.890000 13.890000 13.890000 13.890000 13.890000 13.890000 13.890000 13.890000 13.890000 13.890000 13.890000 13.890000 13.890000 13.890000 13.890000 14.299901 13.890000 13.890000 13.890000 13.890000 13.890000 13.890000 13.890000 13.890000 13.890000 13.890000 13.890000 13.890000 13.890000 13.890000 13.890000 13.890000 13.890000 13.890000 13.890000 13.890000 13.890000 13.890000 13.890000 13.890000 13.890000 13.890000 13.890000 13.890000 13.890000 13.890000 13.890000 13.890000 13.890000 13.890000 13.890000 13.890000 13.890000 13.890000 13.890000 13.890000 13.890000 13.890000 13.890000 13.890000 13.890000 13.890000 13.890000 13.890000 13.890000 13.890000 13.890000 13.890000 13.890000 13.890000 13.890000 13.890000 13.890000 13.890000 13.890000 13.890000 13.890000 13.890000 13.890000 13.890000 13.890000 13.890000 13.890000 13.890000 13.890000 13.890000 13.890000 13.890000 13.890000 13.890000 13.890000 13.890000 13.890000 13.890000 13.890000 13.890000 13.890000 13.890000 13.890000 13.890000 13.890000 13.890000 13.890000 13.890000 13.890000 13.890000 13.890000 13.890000 13.890000 13.890000 13.890000 13.890000 13.890000 13.890000 13.890000 13.890000 13.890000 13.890000 13.890000 13.890000 13.890000 13.890000 13.890000 13.890000 13.890000 13.890000 13.890000 13.890000 13.890000 13.890000 13.890000 13.890000 13.890000 13.890000 13.890000 13.890000 13.890000 13.890000 13.890000 13.890000 13.890000 13.890000 13.890000 13.890000 13.890000 13.890000 13.890000"/>
        <edge id=":C1_14" speed="4.385193" pastSpeed="4.334479 4.334479 4.334479 4.334479 4.334479 4.334479 4.334479 4.334479 4.334479 4.334479 4.334479 4.334479 4.334479 4.334479 4.334479 4.334479 4.334479 4.334479 4.334479 4.334479 4.334479 4.334479 4.334479 4.334479 4.334479 4.334479 4.334479 4.334479 4.334479 4.334479 4.334479 4.334479 4.334479 4.334479 4.334479 4.334479 4.334479 4.334479 4.334479 4.334479 4.334479 4.334479 4.334479 4.334479 4.334479 4.334479 4.334479 4.334479 4.334479 4.334479 4.334479 13.462998 4.334479 4.334479 4.334479 4.334479 4.334479 4.334479 4.334479 4.334479 4.334479 4.334479 4.334479 4.334479 4.334479 4.334479 4.334479 4.334479 4.334479 4.334479 4.334479 4.334479 4.334479 4.334479 4.334479 4.334479 4.334479 4.334479 4.334479 4.334479 4.334479 4.334479 4.334479 4.334479 4.334479 4.334479 4.334479 4.334479 4.334479 4.334479 4.334479 4.334479 4.334479 4.334479 4.334479 4.334479 4.334479 4.334479 4.334479 4.334479 4.334479 4.334479 4.334479 4.334479 4.334479 4.334479 4.334479 4.334479 4.334479 4.334479 4.334479 4.334479 4.334479 4.334479 4.334479 4.334479 4.334479 4.334479 4.334479 4.334479 4.334479 4.334479 4.334479 4.334479 4.334479 4.334479 4.334479 4.334479 4.334479 4.334479 4.334479 4.334479 4.334479 4.334479 4.334479 4.334479 4.334479 4.334479 4.334479 4.334479 4.334479 4.334479 4.334479 4.334479 4.334479 4.334479 4.334479 4.334479 4.334479 4.334479 4.334479 4.334479 4.334479 4.334479 4.334479 4.334479 4.334479 4.334479 4.334479 4.334479 4.334479 4.334479 4.334479 4.334479 4.334479 4.334479 4.334479 4.334479 4.334479 4.334479 4.334479 4.334479 4.334479 4.334479 4.334479 4.334479 4.334479 4.334479 4.334479 4.334479"/>
        <edge id=":C2_4" speed="4.440581" pastSpeed="4.334479 4.334479 4.334479 4.334479 4.334479 4.334479 4.334479 4.334479 4.334479 4.334479 4.334479 4.334479 4.334479 4.334479 4.334479 4.334479 4.334479 4.334479 4.334479 4.334479 4.334479 4.334479 4.334479 4.334479 4.334479 4.334479 4.334479 4.334479 4.334479 4.334479 4.334479 4.334479 4.334479 4.334479 4.334479 4.334479 4.334479 4.334479 4.334479 4.334479 4.334479 4.334479 4.334479 4.334479 4.334479 4.334479 4.334479 4.334479 4.334479 4.334479 4.334479 4.334479 4.334479 4.334479 4.334479 4.334479 14.304435 4.334479 4.334479 13.462998 4.334479 4.334479 4.334479 4.334479 4.334479 4.334479 4.334479 4.334479 4.334479 4.334479 4.334479 4.334479 4.334479 4.334479 4.334479 4.334479 4.334479 4.334479 4.334479 4.334479 4.334479 4.334479 4.334479 4.334479 4.334479 4.334479 4.334479 4.334479 4.334479 4.334479 4.334479 4.334479 4.334479 4.334479 4.334479 4.334479 4.334479 4.334479 4.334479 4.334479 4.334479 4.334479 4.334479 4.334479 4.334479 4.334479 4.334479 4.334479 4.334479 4.334479 4.334479 4.334479 4.334479 4.334479 4.334479 4.334479 4.334479 4.334479 4.334479 4.334479 4.334479 4.334479 4.334479 4.334479 4.334479 4.334479 4.334479 4.334479 4.334479 4.334479 4.334479 4.334479 4.334479 4.334479 4.334479 4.334479 4.334479 4.334479 4.334479 4.334479 4.334479 4.334479 4.334479 4.334479 4.334479 4.334479 4.334479 4.334479 4.334479 4.334479 4.334479 4.334479 4.334479 4.334479 4.334479 4.334479 4.334479 4.334479 4.334479 4.334479 4.334479 4.334479 4.334479 4.334479 4.334479 4.334479 4.334479 4.334479 4.334479 4.334479 4.334479 4.334479 4.334479 4.334479 4.334479 4.334479 4.334479 4.334479 4.334479 4.334479"/>
        <edge id="A0B0" speed="13.938571" pastSpeed="14.306322 14.306322 14.306322 14.306322 14.306322 14.306322 14.306322 14.306322 14.306322 14.306322 14.306322 14.306322 14.306322 14.306322 14.306322 14.306322 14.306322 14.306322 14.306322 14.306322 14.306322 13.890000 13.890000 13.890000 13.890000 13.890000 13.890000 13.890000 13.890000 13.890000 13.890000 13.890000 13.890000 13.890000 13.890000 13.890000 13.890000 13.890000 13.890000 13.890000 13.890000 13.890000 13.890000 13.890000 13.890000 13.890000 13.890000 13.890000 13.890000 13.890000 13.890000 13.890000 13.890000 13.890000 13.890000 13.890000 13.890000 13.890000 13.890000 13.890000 13.890000 13.890000 13.890000 13.890000 13.890000 13.890000 13.890000 13.890000 13.890000 13.890000 13.890000 13.890000 13.890000 13.890000 13.890000 13.890000 13.890000 13.890000 13.890000 13.890000 13.890000 13.890000 13.890000 13.890000 13.890000 13.890000 13.890000 13.890000 13.890000 13.890000 13.890000 13.890000 13.890000 13.890000 13.890000 13.890000 13.890000 13.890000 13.890000 13.890000 13.890000 13.890000 13.890000 13.890000 13.890000 13.890000 13.890000 13.890000 13.890000 13.890000 13.890000 13.890000 13.890000 13.890000 13.890000 13.890000 13.890000 13.890000 13.890000 13.890000 13.890000 13.890000 13.890000 13.890000 13.890000 13.890000 13.890000 13.890000 13.890000 13.890000 13.890000 13.890000 13.890000 13.890000 13.890000 13.890000 13.890000 13.890000 13.890000 13.890000 13.890000 13.890000 13.890000 13.890000 13.890000 13.890000 13.890000 13.890000 13.890000 13.890000 13.890000 13.890000 13.890000 13.890000 13.890000 13.890000 13.890000 13.890000 13.890000 13.890000 13.890000 13.890000 13.890000 13.890000 13.890000 13.890000 13.890000 13.890000 13.890000 13.890000 13.890000 13.890000 13.890000 13.890000 13.890000 13.890000 13.890000 13.890000 13.890000 13.890000"/>
        <edge id="A2B2" speed="13.837754" pastSpeed="13.462529 13.462529 13.462529 13.462529 13.462529 13.462529 13.462529 13.462529 13.462529 13.462529 13.462529 13.462529 13.462529 13.462529 13.462529 13.462529 13.462529 13.462529 13.462529 13.462529 13.462529 13.462529 13.890000 13.890000 13.890000 13.890000 13.890000 13.890000 13.890000 13.890000 13.890000 13.890000 13.890000 13.890000 13.890000 13.890000 13.890000 13.890000 13.890000 13.890000 13.890000 13.890000 13.890000 13.890000 13.890000 13.890000 13.890000 13.890000 13.890000 13.890000 13.890000 13.890000 13.890000 13.890000 13.890000 13.890000 13.890000 13.890000 13.890000 13.890000 13.890000 13.890000 13.890000 13.890000 13.890000 13.890000 13.890000 13.890000 13.890000 13.890000 13.890000 13.890000 13.890000 13.890000 13.890000 13.890000 13.890000 13.890000 13.890000 13.890000 13.890000 13.890000 13.890000 13.890000 13.890000 13.890000 13.890000 13.890000 13.890000 13.890000 13.890000 13.890000 13.890000 13.890000 13.890000 13.890000 13.890000 13.890000 13.890000 13.890000 13.890000 13.890000 13.890000 13.890000 13.890000 13.890000 13.890000 13.890000 13.890000 13.890000 13.890000 13.890000 13.890000 13.890000 13.890000 13.890000 13.890000 13.890000 13.890000 13.890000 13.890000 13.890000 13.890000 13.890000 13.890000 13.890000 13.890000 13.890000 13.890000 13.890000 13.890000 13.890000 13.890000 13.890000 13.890000 13.890000 13.890000 13.890000 13.890000 13.890000 13.890000 13.890000 13.890000 13.890000 13.890000 13.890000 13.890000 13.890000 13.890000 13.890000 13.890000 13.890000 13.890000 13.890000 13.890000 13.890000 13.890000 13.890000 13.890000 13.890000 13.890000 13.890000 13.890000 13.890000 13.890000 13.890000 13.890000 13.890000 13.890000 13.890000 13.890000 13.890000 13.890000 13.890000 13.890000 13.890000 13.890000 13.890000 13.890000 13.890000"/>
        <edge id="B0C0" speed="13.936354" pastSpeed="13.890000 13.890000 13.890000 13.890000 13.890000 13.890000 13.890000 13.890000 13.890000 13.890000 13.890000 13.890000 13.890000 13.890000 13.890000 13.890000 13.890000 13.890000 13.890000 13.890000 13.890000 13.890000 14.307184 14.307184 14.307184 14.307184 14.307184 14.307184 14.307184 14.307184 14.307184 14.307184 14.307184 14.307184 14.307184 14.307184 14.307184 14.307184 14.307184 14.307184 14.307184 14.307184 13.890000 13.890000 13.890000 13.890000 13.890000 13.890000 13.890000 13.890000 13.890000 13.890000 13.890000 13.890000 13.890000 13.890000 13.890000 13.890000 13.890000 13.890000 13.890000 13.890000 13.890000 13.890000 13.890000 13.890000 13.890000 13.890000 13.890000 13.890000 13.890000 13.890000 13.890000 13.890000 13.890000 13.890000 13.890000 13.890000 13.890000 13.890000 13.890000 13.890000 13.890000 13.890000 13.890000 13.890000 13.890000 13.890000 13.890000 13.890000 13.890000 13.890000 13.890000 13.890000 13.890000 13.890000 13.890000 13.890000 13.890000 13.890000 13.890000 13.890000 13.890000 13.890000 13.890000 13.890000 13.890000 13.890000 13.890000 13.890000 13.890000 13.890000 13.890000 13.890000 13.890000 13.890000 13.890000 13.890000 13.890000 13.890000 13.890000 13.890000 13.890000 13.890000 13.890000 13.890000 13.890000 13.890000 13.890000 13.890000 13.890000 13.890000 13.890000 13.890000 13.890000 13.890000 13.890000 13.890000 13.890000 13.890000 13.890000 13.890000 13.890000 13.890000 13.890000 13.890000 13.890000 13.890000 13.890000 13.890000 13.890000 13.890000 13.890000 13.890000 13.890000 13.890000 13.890000 13.890000 13.890000 13.890000 13.890000 13.890000 13.890000 13.890000 13.890000 13.890000 13.890000 13.890000 13.890000 13.890000 13.890000 13.890000 13.890000 13.890000 13.890000 13.890000 13.890000 13.890000 13.890000 13.890000"/>