<?xml version="1.0" encoding="UTF-8"?>

<!-- generated on 2024-06-25 08:07:22 by Eclipse SUMO sumo Version v1_20_0+0771-e47a069eb22
This data file and the accompanying materials
are made available under the terms of the Eclipse Public License v2.0
which accompanies this distribution, and is available at
http://www.eclipse.org/legal/epl-v20.html
This file may also be made available under the following Secondary
Licenses when the conditions for such availability set forth in the Eclipse
Public License 2.0 are satisfied: GNU General Public License, version 2
or later which is available at
https://www.gnu.org/licenses/old-licenses/gpl-2.0-standalone.html
SPDX-License-Identifier: EPL-2.0 OR GPL-2.0-or-later
<sumoConfiguration xmlns:xsi="http://www.w3.org/2001/XMLSchema-instance" xsi:noNamespaceSchemaLocation="http://sumo.dlr.de/xsd/sumoConfiguration.xsd">

    <input>
        <net-file value="net2.net.xml"/>
        <route-files value="input_routes.rou.xml"/>
    </input>

    <output>
        <write-license value="true"/>
        <emission-output value="emissions.xml"/>
    </output>

    <processing>
        <default.speeddev value="0"/>
    </processing>

    <report>
        <xml-validation value="never"/>
        <no-step-log value="true"/>
    </report>

    <mesoscopic>
        <mesosim value="true"/>
        <meso-junction-control value="true"/>
    </mesoscopic>

</sumoConfiguration>
-->

<emission-export xmlns:xsi="http://www.w3.org/2001/XMLSchema-instance" xsi:noNamespaceSchemaLocation="http://sumo.dlr.de/xsd/emission_file.xsd">
    <timestep time="0.00"/>
    <timestep time="1.00">
        <vehicle id="WE.0" eclass="HBEFA4/UBus_Artic_gt18t_Euro-VIs_D-E" CO2="14116.27" CO="0.89" HC="0.62" NOx="122.63" PMx="1.83" fuel="4535.57" electricity="0.00" noise="75.64" route="!WE" type="t0" waiting="0.00" edge="WC" pos="0.00" speed="13.89" angle="90.00" x="0.00" y="95.05"/>
    </timestep>
    <timestep time="2.00">
        <vehicle id="WE.0" eclass="HBEFA4/UBus_Artic_gt18t_Euro-VIs_D-E" CO2="14116.27" CO="0.89" HC="0.62" NOx="122.63" PMx="1.83" fuel="4535.57" electricity="0.00" noise="75.64" route="!WE" type="t0" waiting="0.00" edge="WC" pos="0.00" speed="13.89" angle="90.00" x="0.00" y="95.05"/>
    </timestep>
    <timestep time="3.00">
        <vehicle id="WE.0" eclass="HBEFA4/UBus_Artic_gt18t_Euro-VIs_D-E" CO2="14116.27" CO="0.89" HC="0.62" NOx="122.63" PMx="1.83" fuel="4535.57" electricity="0.00" noise="75.64" route="!WE" type="t0" waiting="0.00" edge="WC" pos="0.00" speed="13.89" angle="90.00" x="0.00" y="95.05"/>
        <vehicle id="WE.1" eclass="HBEFA4/UBus_Artic_gt18t_Euro-VIs_D-E" CO2="14116.27" CO="0.89" HC="0.62" NOx="122.63" PMx="1.83" fuel="4535.57" electricity="0.00" noise="75.64" route="!WE" type="t0" waiting="0.00" edge="WC" pos="0.00" speed="13.89" angle="90.00" x="0.00" y="95.05"/>
    </timestep>
    <timestep time="4.00">
        <vehicle id="WE.0" eclass="HBEFA4/UBus_Artic_gt18t_Euro-VIs_D-E" CO2="14116.27" CO="0.89" HC="0.62" NOx="122.63" PMx="1.83" fuel="4535.57" electricity="0.00" noise="75.64" route="!WE" type="t0" waiting="0.00" edge="WC" pos="0.00" speed="13.89" angle="90.00" x="0.00" y="95.05"/>
        <vehicle id="WE.1" eclass="HBEFA4/UBus_Artic_gt18t_Euro-VIs_D-E" CO2="14116.27" CO="0.89" HC="0.62" NOx="122.63" PMx="1.83" fuel="4535.57" electricity="0.00" noise="75.64" route="!WE" type="t0" waiting="0.00" edge="WC" pos="0.00" speed="13.89" angle="90.00" x="0.00" y="95.05"/>
    </timestep>
    <timestep time="5.00">
        <vehicle id="WE.0" eclass="HBEFA4/UBus_Artic_gt18t_Euro-VIs_D-E" CO2="14116.27" CO="0.89" HC="0.62" NOx="122.63" PMx="1.83" fuel="4535.57" electricity="0.00" noise="75.64" route="!WE" type="t0" waiting="0.00" edge="WC" pos="0.00" speed="13.89" angle="90.00" x="0.00" y="95.05"/>
        <vehicle id="WE.1" eclass="HBEFA4/UBus_Artic_gt18t_Euro-VIs_D-E" CO2="14116.27" CO="0.89" HC="0.62" NOx="122.63" PMx="1.83" fuel="4535.57" electricity="0.00" noise="75.64" route="!WE" type="t0" waiting="0.00" edge="WC" pos="0.00" speed="13.89" angle="90.00" x="0.00" y="95.05"/>
    </timestep>
    <timestep time="6.00">
        <vehicle id="WE.0" eclass="HBEFA4/UBus_Artic_gt18t_Euro-VIs_D-E" CO2="14116.27" CO="0.89" HC="0.62" NOx="122.63" PMx="1.83" fuel="4535.57" electricity="0.00" noise="75.64" route="!WE" type="t0" waiting="0.00" edge="WC" pos="0.00" speed="13.89" angle="90.00" x="0.00" y="95.05"/>
        <vehicle id="WE.1" eclass="HBEFA4/UBus_Artic_gt18t_Euro-VIs_D-E" CO2="14116.27" CO="0.89" HC="0.62" NOx="122.63" PMx="1.83" fuel="4535.57" electricity="0.00" noise="75.64" route="!WE" type="t0" waiting="0.00" edge="WC" pos="0.00" speed="13.89" angle="90.00" x="0.00" y="95.05"/>
    </timestep>
    <timestep time="7.00">
        <vehicle id="WE.0" eclass="HBEFA4/UBus_Artic_gt18t_Euro-VIs_D-E" CO2="14116.27" CO="0.89" HC="0.62" NOx="122.63" PMx="1.83" fuel="4535.57" electricity="0.00" noise="75.64" route="!WE" type="t0" waiting="0.00" edge="WC" pos="0.00" speed="13.89" angle="90.00" x="0.00" y="95.05"/>
        <vehicle id="WE.1" eclass="HBEFA4/UBus_Artic_gt18t_Euro-VIs_D-E" CO2="14116.27" CO="0.89" HC="0.62" NOx="122.63" PMx="1.83" fuel="4535.57" electricity="0.00" noise="75.64" route="!WE" type="t0" waiting="0.00" edge="WC" pos="0.00" speed="13.89" angle="90.00" x="0.00" y="95.05"/>
    </timestep>
    <timestep time="8.00">
        <vehicle id="WE.0" eclass="HBEFA4/UBus_Artic_gt18t_Euro-VIs_D-E" CO2="7752.00" CO="0.89" HC="0.32" NOx="65.81" PMx="1.46" fuel="2491.00" electricity="0.00" noise="67.11" route="!WE" type="t0" waiting="1.00" edge="WC" pos="0.00" speed="0.00" angle="90.00" x="0.00" y="95.05"/>
        <vehicle id="WE.1" eclass="HBEFA4/UBus_Artic_gt18t_Euro-VIs_D-E" CO2="14116.27" CO="0.89" HC="0.62" NOx="122.63" PMx="1.83" fuel="4535.57" electricity="0.00" noise="75.64" route="!WE" type="t0" waiting="0.00" edge="WC" pos="0.00" speed="13.89" angle="90.00" x="0.00" y="95.05"/>
    </timestep>
    <timestep time="9.00">
        <vehicle id="WE.0" eclass="HBEFA4/UBus_Artic_gt18t_Euro-VIs_D-E" CO2="7752.00" CO="0.89" HC="0.32" NOx="65.81" PMx="1.46" fuel="2491.00" electricity="0.00" noise="67.11" route="!WE" type="t0" waiting="2.00" edge="WC" pos="0.00" speed="0.00" angle="90.00" x="0.00" y="95.05"/>
        <vehicle id="WE.1" eclass="HBEFA4/UBus_Artic_gt18t_Euro-VIs_D-E" CO2="14116.27" CO="0.89" HC="0.62" NOx="122.63" PMx="1.83" fuel="4535.57" electricity="0.00" noise="75.64" route="!WE" type="t0" waiting="0.00" edge="WC" pos="0.00" speed="13.89" angle="90.00" x="0.00" y="95.05"/>
    </timestep>
    <timestep time="10.00">
        <vehicle id="WE.0" eclass="HBEFA4/UBus_Artic_gt18t_Euro-VIs_D-E" CO2="7752.00" CO="0.89" HC="0.32" NOx="65.81" PMx="1.46" fuel="2491.00" electricity="0.00" noise="67.11" route="!WE" type="t0" waiting="3.00" edge="WC" pos="0.00" speed="0.00" angle="90.00" x="0.00" y="95.05"/>
        <vehicle id="WE.1" eclass="HBEFA4/UBus_Artic_gt18t_Euro-VIs_D-E" CO2="7752.00" CO="0.89" HC="0.32" NOx="65.81" PMx="1.46" fuel="2491.00" electricity="0.00" noise="67.11" route="!WE" type="t0" waiting="1.00" edge="WC" pos="0.00" speed="0.00" angle="90.00" x="0.00" y="95.05"/>
    </timestep>
    <timestep time="11.00">
        <vehicle id="WE.0" eclass="HBEFA4/UBus_Artic_gt18t_Euro-VIs_D-E" CO2="7752.00" CO="0.89" HC="0.32" NOx="65.81" PMx="1.46" fuel="2491.00" electricity="0.00" noise="67.11" route="!WE" type="t0" waiting="4.00" edge="WC" pos="0.00" speed="0.00" angle="90.00" x="0.00" y="95.05"/>
        <vehicle id="WE.1" eclass="HBEFA4/UBus_Artic_gt18t_Euro-VIs_D-E" CO2="7752.00" CO="0.89" HC="0.32" NOx="65.81" PMx="1.46" fuel="2491.00" electricity="0.00" noise="67.11" route="!WE" type="t0" waiting="2.00" edge="WC" pos="0.00" speed="0.00" angle="90.00" x="0.00" y="95.05"/>
    </timestep>
    <timestep time="12.00">
        <vehicle id="WE.0" eclass="HBEFA4/UBus_Artic_gt18t_Euro-VIs_D-E" CO2="7752.00" CO="0.89" HC="0.32" NOx="65.81" PMx="1.46" fuel="2491.00" electricity="0.00" noise="67.11" route="!WE" type="t0" waiting="5.00" edge="WC" pos="0.00" speed="0.00" angle="90.00" x="0.00" y="95.05"/>
        <vehicle id="WE.1" eclass="HBEFA4/UBus_Artic_gt18t_Euro-VIs_D-E" CO2="7752.00" CO="0.89" HC="0.32" NOx="65.81" PMx="1.46" fuel="2491.00" electricity="0.00" noise="67.11" route="!WE" type="t0" waiting="3.00" edge="WC" pos="0.00" speed="0.00" angle="90.00" x="0.00" y="95.05"/>
    </timestep>
    <timestep time="13.00">
        <vehicle id="WE.0" eclass="HBEFA4/UBus_Artic_gt18t_Euro-VIs_D-E" CO2="7752.00" CO="0.89" HC="0.32" NOx="65.81" PMx="1.46" fuel="2491.00" electricity="0.00" noise="67.11" route="!WE" type="t0" waiting="6.00" edge="WC" pos="0.00" speed="0.00" angle="90.00" x="0.00" y="95.05"/>
        <vehicle id="WE.1" eclass="HBEFA4/UBus_Artic_gt18t_Euro-VIs_D-E" CO2="7752.00" CO="0.89" HC="0.32" NOx="65.81" PMx="1.46" fuel="2491.00" electricity="0.00" noise="67.11" route="!WE" type="t0" waiting="4.00" edge="WC" pos="0.00" speed="0.00" angle="90.00" x="0.00" y="95.05"/>
    </timestep>
    <timestep time="14.00">
        <vehicle id="WE.0" eclass="HBEFA4/UBus_Artic_gt18t_Euro-VIs_D-E" CO2="7752.00" CO="0.89" HC="0.32" NOx="65.81" PMx="1.46" fuel="2491.00" electricity="0.00" noise="67.11" route="!WE" type="t0" waiting="7.00" edge="WC" pos="0.00" speed="0.00" angle="90.00" x="0.00" y="95.05"/>
        <vehicle id="WE.1" eclass="HBEFA4/UBus_Artic_gt18t_Euro-VIs_D-E" CO2="7752.00" CO="0.89" HC="0.32" NOx="65.81" PMx="1.46" fuel="2491.00" electricity="0.00" noise="67.11" route="!WE" type="t0" waiting="5.00" edge="WC" pos="0.00" speed="0.00" angle="90.00" x="0.00" y="95.05"/>
    </timestep>
    <timestep time="15.00">
        <vehicle id="WE.0" eclass="HBEFA4/UBus_Artic_gt18t_Euro-VIs_D-E" CO2="7752.00" CO="0.89" HC="0.32" NOx="65.81" PMx="1.46" fuel="2491.00" electricity="0.00" noise="67.11" route="!WE" type="t0" waiting="8.00" edge="WC" pos="0.00" speed="0.00" angle="90.00" x="0.00" y="95.05"/>
        <vehicle id="WE.1" eclass="HBEFA4/UBus_Artic_gt18t_Euro-VIs_D-E" CO2="7752.00" CO="0.89" HC="0.32" NOx="65.81" PMx="1.46" fuel="2491.00" electricity="0.00" noise="67.11" route="!WE" type="t0" waiting="6.00" edge="WC" pos="0.00" speed="0.00" angle="90.00" x="0.00" y="95.05"/>
    </timestep>
    <timestep time="16.00">
        <vehicle id="WE.0" eclass="HBEFA4/UBus_Artic_gt18t_Euro-VIs_D-E" CO2="7752.00" CO="0.89" HC="0.32" NOx="65.81" PMx="1.46" fuel="2491.00" electricity="0.00" noise="67.11" route="!WE" type="t0" waiting="9.00" edge="WC" pos="0.00" speed="0.00" angle="90.00" x="0.00" y="95.05"/>
        <vehicle id="WE.1" eclass="HBEFA4/UBus_Artic_gt18t_Euro-VIs_D-E" CO2="7752.00" CO="0.89" HC="0.32" NOx="65.81" PMx="1.46" fuel="2491.00" electricity="0.00" noise="67.11" route="!WE" type="t0" waiting="7.00" edge="WC" pos="0.00" speed="0.00" angle="90.00" x="0.00" y="95.05"/>
    </timestep>
    <timestep time="17.00">
        <vehicle id="WE.0" eclass="HBEFA4/UBus_Artic_gt18t_Euro-VIs_D-E" CO2="7752.00" CO="0.89" HC="0.32" NOx="65.81" PMx="1.46" fuel="2491.00" electricity="0.00" noise="67.11" route="!WE" type="t0" waiting="10.00" edge="WC" pos="0.00" speed="0.00" angle="90.00" x="0.00" y="95.05"/>
        <vehicle id="WE.1" eclass="HBEFA4/UBus_Artic_gt18t_Euro-VIs_D-E" CO2="7752.00" CO="0.89" HC="0.32" NOx="65.81" PMx="1.46" fuel="2491.00" electricity="0.00" noise="67.11" route="!WE" type="t0" waiting="8.00" edge="WC" pos="0.00" speed="0.00" angle="90.00" x="0.00" y="95.05"/>
    </timestep>
    <timestep time="18.00">
        <vehicle id="WE.0" eclass="HBEFA4/UBus_Artic_gt18t_Euro-VIs_D-E" CO2="7752.00" CO="0.89" HC="0.32" NOx="65.81" PMx="1.46" fuel="2491.00" electricity="0.00" noise="67.11" route="!WE" type="t0" waiting="11.00" edge="WC" pos="0.00" speed="0.00" angle="90.00" x="0.00" y="95.05"/>
        <vehicle id="WE.1" eclass="HBEFA4/UBus_Artic_gt18t_Euro-VIs_D-E" CO2="7752.00" CO="0.89" HC="0.32" NOx="65.81" PMx="1.46" fuel="2491.00" electricity="0.00" noise="67.11" route="!WE" type="t0" waiting="9.00" edge="WC" pos="0.00" speed="0.00" angle="90.00" x="0.00" y="95.05"/>
        <vehicle id="WE.2" eclass="HBEFA4/UBus_Artic_gt18t_Euro-VIs_D-E" CO2="14116.27" CO="0.89" HC="0.62" NOx="122.63" PMx="1.83" fuel="4535.57" electricity="0.00" noise="75.64" route="!WE" type="t0" waiting="0.00" edge="WC" pos="0.00" speed="13.89" angle="90.00" x="0.00" y="95.05"/>
    </timestep>
    <timestep time="19.00">
        <vehicle id="WE.0" eclass="HBEFA4/UBus_Artic_gt18t_Euro-VIs_D-E" CO2="7752.00" CO="0.89" HC="0.32" NOx="65.81" PMx="1.46" fuel="2491.00" electricity="0.00" noise="67.11" route="!WE" type="t0" waiting="12.00" edge="WC" pos="0.00" speed="0.00" angle="90.00" x="0.00" y="95.05"/>
        <vehicle id="WE.1" eclass="HBEFA4/UBus_Artic_gt18t_Euro-VIs_D-E" CO2="7752.00" CO="0.89" HC="0.32" NOx="65.81" PMx="1.46" fuel="2491.00" electricity="0.00" noise="67.11" route="!WE" type="t0" waiting="10.00" edge="WC" pos="0.00" speed="0.00" angle="90.00" x="0.00" y="95.05"/>
        <vehicle id="WE.2" eclass="HBEFA4/UBus_Artic_gt18t_Euro-VIs_D-E" CO2="14116.27" CO="0.89" HC="0.62" NOx="122.63" PMx="1.83" fuel="4535.57" electricity="0.00" noise="75.64" route="!WE" type="t0" waiting="0.00" edge="WC" pos="0.00" speed="13.89" angle="90.00" x="0.00" y="95.05"/>
    </timestep>
    <timestep time="20.00">
        <vehicle id="WE.0" eclass="HBEFA4/UBus_Artic_gt18t_Euro-VIs_D-E" CO2="7752.00" CO="0.89" HC="0.32" NOx="65.81" PMx="1.46" fuel="2491.00" electricity="0.00" noise="67.11" route="!WE" type="t0" waiting="13.00" edge="WC" pos="0.00" speed="0.00" angle="90.00" x="0.00" y="95.05"/>
        <vehicle id="WE.1" eclass="HBEFA4/UBus_Artic_gt18t_Euro-VIs_D-E" CO2="7752.00" CO="0.89" HC="0.32" NOx="65.81" PMx="1.46" fuel="2491.00" electricity="0.00" noise="67.11" route="!WE" type="t0" waiting="11.00" edge="WC" pos="0.00" speed="0.00" angle="90.00" x="0.00" y="95.05"/>
        <vehicle id="WE.2" eclass="HBEFA4/UBus_Artic_gt18t_Euro-VIs_D-E" CO2="14116.27" CO="0.89" HC="0.62" NOx="122.63" PMx="1.83" fuel="4535.57" electricity="0.00" noise="75.64" route="!WE" type="t0" waiting="0.00" edge="WC" pos="0.00" speed="13.89" angle="90.00" x="0.00" y="95.05"/>
    </timestep>
    <timestep time="21.00">
        <vehicle id="WE.0" eclass="HBEFA4/UBus_Artic_gt18t_Euro-VIs_D-E" CO2="7752.00" CO="0.89" HC="0.32" NOx="65.81" PMx="1.46" fuel="2491.00" electricity="0.00" noise="67.11" route="!WE" type="t0" waiting="14.00" edge="WC" pos="0.00" speed="0.00" angle="90.00" x="0.00" y="95.05"/>
        <vehicle id="WE.1" eclass="HBEFA4/UBus_Artic_gt18t_Euro-VIs_D-E" CO2="7752.00" CO="0.89" HC="0.32" NOx="65.81" PMx="1.46" fuel="2491.00" electricity="0.00" noise="67.11" route="!WE" type="t0" waiting="12.00" edge="WC" pos="0.00" speed="0.00" angle="90.00" x="0.00" y="95.05"/>
        <vehicle id="WE.2" eclass="HBEFA4/UBus_Artic_gt18t_Euro-VIs_D-E" CO2="14116.27" CO="0.89" HC="0.62" NOx="122.63" PMx="1.83" fuel="4535.57" electricity="0.00" noise="75.64" route="!WE" type="t0" waiting="0.00" edge="WC" pos="0.00" speed="13.89" angle="90.00" x="0.00" y="95.05"/>
    </timestep>
    <timestep time="22.00">
        <vehicle id="WE.0" eclass="HBEFA4/UBus_Artic_gt18t_Euro-VIs_D-E" CO2="7752.00" CO="0.89" HC="0.32" NOx="65.81" PMx="1.46" fuel="2491.00" electricity="0.00" noise="67.11" route="!WE" type="t0" waiting="15.00" edge="WC" pos="0.00" speed="0.00" angle="90.00" x="0.00" y="95.05"/>
        <vehicle id="WE.1" eclass="HBEFA4/UBus_Artic_gt18t_Euro-VIs_D-E" CO2="7752.00" CO="0.89" HC="0.32" NOx="65.81" PMx="1.46" fuel="2491.00" electricity="0.00" noise="67.11" route="!WE" type="t0" waiting="13.00" edge="WC" pos="0.00" speed="0.00" angle="90.00" x="0.00" y="95.05"/>
        <vehicle id="WE.2" eclass="HBEFA4/UBus_Artic_gt18t_Euro-VIs_D-E" CO2="14116.27" CO="0.89" HC="0.62" NOx="122.63" PMx="1.83" fuel="4535.57" electricity="0.00" noise="75.64" route="!WE" type="t0" waiting="0.00" edge="WC" pos="0.00" speed="13.89" angle="90.00" x="0.00" y="95.05"/>
        <vehicle id="WE.3" eclass="HBEFA4/UBus_Artic_gt18t_Euro-VIs_D-E" CO2="14116.27" CO="0.89" HC="0.62" NOx="122.63" PMx="1.83" fuel="4535.57" electricity="0.00" noise="75.64" route="!WE" type="t0" waiting="0.00" edge="WC" pos="0.00" speed="13.89" angle="90.00" x="0.00" y="95.05"/>
    </timestep>
    <timestep time="23.00">
        <vehicle id="WE.0" eclass="HBEFA4/UBus_Artic_gt18t_Euro-VIs_D-E" CO2="7752.00" CO="0.89" HC="0.32" NOx="65.81" PMx="1.46" fuel="2491.00" electricity="0.00" noise="67.11" route="!WE" type="t0" waiting="16.00" edge="WC" pos="0.00" speed="0.00" angle="90.00" x="0.00" y="95.05"/>
        <vehicle id="WE.1" eclass="HBEFA4/UBus_Artic_gt18t_Euro-VIs_D-E" CO2="7752.00" CO="0.89" HC="0.32" NOx="65.81" PMx="1.46" fuel="2491.00" electricity="0.00" noise="67.11" route="!WE" type="t0" waiting="14.00" edge="WC" pos="0.00" speed="0.00" angle="90.00" x="0.00" y="95.05"/>
        <vehicle id="WE.2" eclass="HBEFA4/UBus_Artic_gt18t_Euro-VIs_D-E" CO2="14116.27" CO="0.89" HC="0.62" NOx="122.63" PMx="1.83" fuel="4535.57" electricity="0.00" noise="75.64" route="!WE" type="t0" waiting="0.00" edge="WC" pos="0.00" speed="13.89" angle="90.00" x="0.00" y="95.05"/>
        <vehicle id="WE.3" eclass="HBEFA4/UBus_Artic_gt18t_Euro-VIs_D-E" CO2="14116.27" CO="0.89" HC="0.62" NOx="122.63" PMx="1.83" fuel="4535.57" electricity="0.00" noise="75.64" route="!WE" type="t0" waiting="0.00" edge="WC" pos="0.00" speed="13.89" angle="90.00" x="0.00" y="95.05"/>
    </timestep>
    <timestep time="24.00">
        <vehicle id="WE.0" eclass="HBEFA4/UBus_Artic_gt18t_Euro-VIs_D-E" CO2="7752.00" CO="0.89" HC="0.32" NOx="65.81" PMx="1.46" fuel="2491.00" electricity="0.00" noise="67.11" route="!WE" type="t0" waiting="17.00" edge="WC" pos="0.00" speed="0.00" angle="90.00" x="0.00" y="95.05"/>
        <vehicle id="WE.1" eclass="HBEFA4/UBus_Artic_gt18t_Euro-VIs_D-E" CO2="7752.00" CO="0.89" HC="0.32" NOx="65.81" PMx="1.46" fuel="2491.00" electricity="0.00" noise="67.11" route="!WE" type="t0" waiting="15.00" edge="WC" pos="0.00" speed="0.00" angle="90.00" x="0.00" y="95.05"/>
        <vehicle id="WE.2" eclass="HBEFA4/UBus_Artic_gt18t_Euro-VIs_D-E" CO2="14116.27" CO="0.89" HC="0.62" NOx="122.63" PMx="1.83" fuel="4535.57" electricity="0.00" noise="75.64" route="!WE" type="t0" waiting="0.00" edge="WC" pos="0.00" speed="13.89" angle="90.00" x="0.00" y="95.05"/>
        <vehicle id="WE.3" eclass="HBEFA4/UBus_Artic_gt18t_Euro-VIs_D-E" CO2="14116.27" CO="0.89" HC="0.62" NOx="122.63" PMx="1.83" fuel="4535.57" electricity="0.00" noise="75.64" route="!WE" type="t0" waiting="0.00" edge="WC" pos="0.00" speed="13.89" angle="90.00" x="0.00" y="95.05"/>
        <vehicle id="WE.4" eclass="HBEFA4/UBus_Artic_gt18t_Euro-VIs_D-E" CO2="14116.27" CO="0.89" HC="0.62" NOx="122.63" PMx="1.83" fuel="4535.57" electricity="0.00" noise="75.64" route="!WE" type="t0" waiting="0.00" edge="WC" pos="0.00" speed="13.89" angle="90.00" x="0.00" y="95.05"/>
    </timestep>
    <timestep time="25.00">
        <vehicle id="WE.0" eclass="HBEFA4/UBus_Artic_gt18t_Euro-VIs_D-E" CO2="7752.00" CO="0.89" HC="0.32" NOx="65.81" PMx="1.46" fuel="2491.00" electricity="0.00" noise="67.11" route="!WE" type="t0" waiting="18.00" edge="WC" pos="0.00" speed="0.00" angle="90.00" x="0.00" y="95.05"/>
        <vehicle id="WE.1" eclass="HBEFA4/UBus_Artic_gt18t_Euro-VIs_D-E" CO2="7752.00" CO="0.89" HC="0.32" NOx="65.81" PMx="1.46" fuel="2491.00" electricity="0.00" noise="67.11" route="!WE" type="t0" waiting="16.00" edge="WC" pos="0.00" speed="0.00" angle="90.00" x="0.00" y="95.05"/>
        <vehicle id="WE.2" eclass="HBEFA4/UBus_Artic_gt18t_Euro-VIs_D-E" CO2="14116.27" CO="0.89" HC="0.62" NOx="122.63" PMx="1.83" fuel="4535.57" electricity="0.00" noise="75.64" route="!WE" type="t0" waiting="0.00" edge="WC" pos="0.00" speed="13.89" angle="90.00" x="0.00" y="95.05"/>
        <vehicle id="WE.3" eclass="HBEFA4/UBus_Artic_gt18t_Euro-VIs_D-E" CO2="14116.27" CO="0.89" HC="0.62" NOx="122.63" PMx="1.83" fuel="4535.57" electricity="0.00" noise="75.64" route="!WE" type="t0" waiting="0.00" edge="WC" pos="0.00" speed="13.89" angle="90.00" x="0.00" y="95.05"/>
        <vehicle id="WE.4" eclass="HBEFA4/UBus_Artic_gt18t_Euro-VIs_D-E" CO2="14116.27" CO="0.89" HC="0.62" NOx="122.63" PMx="1.83" fuel="4535.57" electricity="0.00" noise="75.64" route="!WE" type="t0" waiting="0.00" edge="WC" pos="0.00" speed="13.89" angle="90.00" x="0.00" y="95.05"/>
    </timestep>
    <timestep time="26.00">
        <vehicle id="WE.0" eclass="HBEFA4/UBus_Artic_gt18t_Euro-VIs_D-E" CO2="7752.00" CO="0.89" HC="0.32" NOx="65.81" PMx="1.46" fuel="2491.00" electricity="0.00" noise="67.11" route="!WE" type="t0" waiting="19.00" edge="WC" pos="0.00" speed="0.00" angle="90.00" x="0.00" y="95.05"/>
        <vehicle id="WE.1" eclass="HBEFA4/UBus_Artic_gt18t_Euro-VIs_D-E" CO2="7752.00" CO="0.89" HC="0.32" NOx="65.81" PMx="1.46" fuel="2491.00" electricity="0.00" noise="67.11" route="!WE" type="t0" waiting="17.00" edge="WC" pos="0.00" speed="0.00" angle="90.00" x="0.00" y="95.05"/>
        <vehicle id="WE.2" eclass="HBEFA4/UBus_Artic_gt18t_Euro-VIs_D-E" CO2="14116.27" CO="0.89" HC="0.62" NOx="122.63" PMx="1.83" fuel="4535.57" electricity="0.00" noise="75.64" route="!WE" type="t0" waiting="0.00" edge="WC" pos="0.00" speed="13.89" angle="90.00" x="0.00" y="95.05"/>
        <vehicle id="WE.3" eclass="HBEFA4/UBus_Artic_gt18t_Euro-VIs_D-E" CO2="14116.27" CO="0.89" HC="0.62" NOx="122.63" PMx="1.83" fuel="4535.57" electricity="0.00" noise="75.64" route="!WE" type="t0" waiting="0.00" edge="WC" pos="0.00" speed="13.89" angle="90.00" x="0.00" y="95.05"/>
        <vehicle id="WE.4" eclass="HBEFA4/UBus_Artic_gt18t_Euro-VIs_D-E" CO2="14116.27" CO="0.89" HC="0.62" NOx="122.63" PMx="1.83" fuel="4535.57" electricity="0.00" noise="75.64" route="!WE" type="t0" waiting="0.00" edge="WC" pos="0.00" speed="13.89" angle="90.00" x="0.00" y="95.05"/>
    </timestep>
    <timestep time="27.00">
        <vehicle id="WE.0" eclass="HBEFA4/UBus_Artic_gt18t_Euro-VIs_D-E" CO2="7752.00" CO="0.89" HC="0.32" NOx="65.81" PMx="1.46" fuel="2491.00" electricity="0.00" noise="67.11" route="!WE" type="t0" waiting="20.00" edge="WC" pos="0.00" speed="0.00" angle="90.00" x="0.00" y="95.05"/>
        <vehicle id="WE.1" eclass="HBEFA4/UBus_Artic_gt18t_Euro-VIs_D-E" CO2="7752.00" CO="0.89" HC="0.32" NOx="65.81" PMx="1.46" fuel="2491.00" electricity="0.00" noise="67.11" route="!WE" type="t0" waiting="18.00" edge="WC" pos="0.00" speed="0.00" angle="90.00" x="0.00" y="95.05"/>
        <vehicle id="WE.2" eclass="HBEFA4/UBus_Artic_gt18t_Euro-VIs_D-E" CO2="14116.27" CO="0.89" HC="0.62" NOx="122.63" PMx="1.83" fuel="4535.57" electricity="0.00" noise="75.64" route="!WE" type="t0" waiting="0.00" edge="WC" pos="0.00" speed="13.89" angle="90.00" x="0.00" y="95.05"/>
        <vehicle id="WE.3" eclass="HBEFA4/UBus_Artic_gt18t_Euro-VIs_D-E" CO2="14116.27" CO="0.89" HC="0.62" NOx="122.63" PMx="1.83" fuel="4535.57" electricity="0.00" noise="75.64" route="!WE" type="t0" waiting="0.00" edge="WC" pos="0.00" speed="13.89" angle="90.00" x="0.00" y="95.05"/>
        <vehicle id="WE.4" eclass="HBEFA4/UBus_Artic_gt18t_Euro-VIs_D-E" CO2="14116.27" CO="0.89" HC="0.62" NOx="122.63" PMx="1.83" fuel="4535.57" electricity="0.00" noise="75.64" route="!WE" type="t0" waiting="0.00" edge="WC" pos="0.00" speed="13.89" angle="90.00" x="0.00" y="95.05"/>
    </timestep>
    <timestep time="28.00">
        <vehicle id="WE.0" eclass="HBEFA4/UBus_Artic_gt18t_Euro-VIs_D-E" CO2="7752.00" CO="0.89" HC="0.32" NOx="65.81" PMx="1.46" fuel="2491.00" electricity="0.00" noise="67.11" route="!WE" type="t0" waiting="21.00" edge="WC" pos="0.00" speed="0.00" angle="90.00" x="0.00" y="95.05"/>
        <vehicle id="WE.1" eclass="HBEFA4/UBus_Artic_gt18t_Euro-VIs_D-E" CO2="7752.00" CO="0.89" HC="0.32" NOx="65.81" PMx="1.46" fuel="2491.00" electricity="0.00" noise="67.11" route="!WE" type="t0" waiting="19.00" edge="WC" pos="0.00" speed="0.00" angle="90.00" x="0.00" y="95.05"/>
        <vehicle id="WE.2" eclass="HBEFA4/UBus_Artic_gt18t_Euro-VIs_D-E" CO2="14116.27" CO="0.89" HC="0.62" NOx="122.63" PMx="1.83" fuel="4535.57" electricity="0.00" noise="75.64" route="!WE" type="t0" waiting="0.00" edge="WC" pos="0.00" speed="13.89" angle="90.00" x="0.00" y="95.05"/>
        <vehicle id="WE.3" eclass="HBEFA4/UBus_Artic_gt18t_Euro-VIs_D-E" CO2="14116.27" CO="0.89" HC="0.62" NOx="122.63" PMx="1.83" fuel="4535.57" electricity="0.00" noise="75.64" route="!WE" type="t0" waiting="0.00" edge="WC" pos="0.00" speed="13.89" angle="90.00" x="0.00" y="95.05"/>
        <vehicle id="WE.4" eclass="HBEFA4/UBus_Artic_gt18t_Euro-VIs_D-E" CO2="14116.27" CO="0.89" HC="0.62" NOx="122.63" PMx="1.83" fuel="4535.57" electricity="0.00" noise="75.64" route="!WE" type="t0" waiting="0.00" edge="WC" pos="0.00" speed="13.89" angle="90.00" x="0.00" y="95.05"/>
    </timestep>
    <timestep time="29.00">
        <vehicle id="WE.0" eclass="HBEFA4/UBus_Artic_gt18t_Euro-VIs_D-E" CO2="7752.00" CO="0.89" HC="0.32" NOx="65.81" PMx="1.46" fuel="2491.00" electricity="0.00" noise="67.11" route="!WE" type="t0" waiting="22.00" edge="WC" pos="0.00" speed="0.00" angle="90.00" x="0.00" y="95.05"/>
        <vehicle id="WE.1" eclass="HBEFA4/UBus_Artic_gt18t_Euro-VIs_D-E" CO2="7752.00" CO="0.89" HC="0.32" NOx="65.81" PMx="1.46" fuel="2491.00" electricity="0.00" noise="67.11" route="!WE" type="t0" waiting="20.00" edge="WC" pos="0.00" speed="0.00" angle="90.00" x="0.00" y="95.05"/>
        <vehicle id="WE.2" eclass="HBEFA4/UBus_Artic_gt18t_Euro-VIs_D-E" CO2="14116.27" CO="0.89" HC="0.62" NOx="122.63" PMx="1.83" fuel="4535.57" electricity="0.00" noise="75.64" route="!WE" type="t0" waiting="0.00" edge="WC" pos="0.00" speed="13.89" angle="90.00" x="0.00" y="95.05"/>
        <vehicle id="WE.3" eclass="HBEFA4/UBus_Artic_gt18t_Euro-VIs_D-E" CO2="14116.27" CO="0.89" HC="0.62" NOx="122.63" PMx="1.83" fuel="4535.57" electricity="0.00" noise="75.64" route="!WE" type="t0" waiting="0.00" edge="WC" pos="0.00" speed="13.89" angle="90.00" x="0.00" y="95.05"/>
        <vehicle id="WE.4" eclass="HBEFA4/UBus_Artic_gt18t_Euro-VIs_D-E" CO2="14116.27" CO="0.89" HC="0.62" NOx="122.63" PMx="1.83" fuel="4535.57" electricity="0.00" noise="75.64" route="!WE" type="t0" waiting="0.00" edge="WC" pos="0.00" speed="13.89" angle="90.00" x="0.00" y="95.05"/>
    </timestep>
    <timestep time="30.00">
        <vehicle id="WE.0" eclass="HBEFA4/UBus_Artic_gt18t_Euro-VIs_D-E" CO2="7752.00" CO="0.89" HC="0.32" NOx="65.81" PMx="1.46" fuel="2491.00" electricity="0.00" noise="67.11" route="!WE" type="t0" waiting="23.00" edge="WC" pos="0.00" speed="0.00" angle="90.00" x="0.00" y="95.05"/>
        <vehicle id="WE.1" eclass="HBEFA4/UBus_Artic_gt18t_Euro-VIs_D-E" CO2="7752.00" CO="0.89" HC="0.32" NOx="65.81" PMx="1.46" fuel="2491.00" electricity="0.00" noise="67.11" route="!WE" type="t0" waiting="21.00" edge="WC" pos="0.00" speed="0.00" angle="90.00" x="0.00" y="95.05"/>
        <vehicle id="WE.2" eclass="HBEFA4/UBus_Artic_gt18t_Euro-VIs_D-E" CO2="14116.27" CO="0.89" HC="0.62" NOx="122.63" PMx="1.83" fuel="4535.57" electricity="0.00" noise="75.64" route="!WE" type="t0" waiting="0.00" edge="WC" pos="0.00" speed="13.89" angle="90.00" x="0.00" y="95.05"/>
        <vehicle id="WE.3" eclass="HBEFA4/UBus_Artic_gt18t_Euro-VIs_D-E" CO2="14116.27" CO="0.89" HC="0.62" NOx="122.63" PMx="1.83" fuel="4535.57" electricity="0.00" noise="75.64" route="!WE" type="t0" waiting="0.00" edge="WC" pos="0.00" speed="13.89" angle="90.00" x="0.00" y="95.05"/>
        <vehicle id="WE.4" eclass="HBEFA4/UBus_Artic_gt18t_Euro-VIs_D-E" CO2="14116.27" CO="0.89" HC="0.62" NOx="122.63" PMx="1.83" fuel="4535.57" electricity="0.00" noise="75.64" route="!WE" type="t0" waiting="0.00" edge="WC" pos="0.00" speed="13.89" angle="90.00" x="0.00" y="95.05"/>
    </timestep>
    <timestep time="31.00">
        <vehicle id="WE.0" eclass="HBEFA4/UBus_Artic_gt18t_Euro-VIs_D-E" CO2="7752.00" CO="0.89" HC="0.32" NOx="65.81" PMx="1.46" fuel="2491.00" electricity="0.00" noise="67.11" route="!WE" type="t0" waiting="24.00" edge="WC" pos="0.00" speed="0.00" angle="90.00" x="0.00" y="95.05"/>
        <vehicle id="WE.1" eclass="HBEFA4/UBus_Artic_gt18t_Euro-VIs_D-E" CO2="7752.00" CO="0.89" HC="0.32" NOx="65.81" PMx="1.46" fuel="2491.00" electricity="0.00" noise="67.11" route="!WE" type="t0" waiting="22.00" edge="WC" pos="0.00" speed="0.00" angle="90.00" x="0.00" y="95.05"/>
        <vehicle id="WE.2" eclass="HBEFA4/UBus_Artic_gt18t_Euro-VIs_D-E" CO2="14116.27" CO="0.89" HC="0.62" NOx="122.63" PMx="1.83" fuel="4535.57" electricity="0.00" noise="75.64" route="!WE" type="t0" waiting="0.00" edge="WC" pos="0.00" speed="13.89" angle="90.00" x="0.00" y="95.05"/>
        <vehicle id="WE.3" eclass="HBEFA4/UBus_Artic_gt18t_Euro-VIs_D-E" CO2="14116.27" CO="0.89" HC="0.62" NOx="122.63" PMx="1.83" fuel="4535.57" electricity="0.00" noise="75.64" route="!WE" type="t0" waiting="0.00" edge="WC" pos="0.00" speed="13.89" angle="90.00" x="0.00" y="95.05"/>
        <vehicle id="WE.4" eclass="HBEFA4/UBus_Artic_gt18t_Euro-VIs_D-E" CO2="14116.27" CO="0.89" HC="0.62" NOx="122.63" PMx="1.83" fuel="4535.57" electricity="0.00" noise="75.64" route="!WE" type="t0" waiting="0.00" edge="WC" pos="0.00" speed="13.89" angle="90.00" x="0.00" y="95.05"/>
    </timestep>
    <timestep time="32.00">
        <vehicle id="WE.0" eclass="HBEFA4/UBus_Artic_gt18t_Euro-VIs_D-E" CO2="7752.00" CO="0.89" HC="0.32" NOx="65.81" PMx="1.46" fuel="2491.00" electricity="0.00" noise="67.11" route="!WE" type="t0" waiting="25.00" edge="WC" pos="0.00" speed="0.00" angle="90.00" x="0.00" y="95.05"/>
        <vehicle id="WE.1" eclass="HBEFA4/UBus_Artic_gt18t_Euro-VIs_D-E" CO2="7752.00" CO="0.89" HC="0.32" NOx="65.81" PMx="1.46" fuel="2491.00" electricity="0.00" noise="67.11" route="!WE" type="t0" waiting="23.00" edge="WC" pos="0.00" speed="0.00" angle="90.00" x="0.00" y="95.05"/>