<?xml version="1.0" encoding="UTF-8"?>

<!-- generated on 2024-06-24 12:45:52 by Eclipse SUMO sumo Version v1_20_0+0745-559283a1f33
This data file and the accompanying materials
are made available under the terms of the Eclipse Public License v2.0
which accompanies this distribution, and is available at
http://www.eclipse.org/legal/epl-v20.html
This file may also be made available under the following Secondary
Licenses when the conditions for such availability set forth in the Eclipse
Public License 2.0 are satisfied: GNU General Public License, version 2
or later which is available at
https://www.gnu.org/licenses/old-licenses/gpl-2.0-standalone.html
SPDX-License-Identifier: EPL-2.0 OR GPL-2.0-or-later
<sumoConfiguration xmlns:xsi="http://www.w3.org/2001/XMLSchema-instance" xsi:noNamespaceSchemaLocation="http://sumo.dlr.de/xsd/sumoConfiguration.xsd">

    <input>
        <net-file value="net2.net.xml"/>
        <route-files value="input_routes.rou.xml"/>
    </input>

    <output>
        <write-license value="true"/>
        <emission-output value="emissions.xml"/>
    </output>

    <processing>
        <default.speeddev value="0"/>
    </processing>

    <report>
        <xml-validation value="never"/>
        <no-step-log value="true"/>
    </report>

</sumoConfiguration>
-->

<emission-export xmlns:xsi="http://www.w3.org/2001/XMLSchema-instance" xsi:noNamespaceSchemaLocation="http://sumo.dlr.de/xsd/emission_file.xsd">
    <timestep time="0.00"/>
    <timestep time="1.00">
        <vehicle id="WE.0" eclass="HBEFA4/UBus_Artic_gt18t_Euro-VIs_D-E" CO2="14116.40" CO="0.89" HC="0.62" NOx="122.63" PMx="1.83" fuel="4535.61" electricity="0.00" noise="75.64" route="!WE" type="t0" waiting="0.00" lane="WC_0" pos="12.10" speed="13.89" angle="90.00" x="12.10" y="95.05"/>
    </timestep>
    <timestep time="2.00">
        <vehicle id="WE.0" eclass="HBEFA4/UBus_Artic_gt18t_Euro-VIs_D-E" CO2="0.00" CO="0.00" HC="0.00" NOx="0.00" PMx="0.00" fuel="0.00" electricity="0.00" noise="73.97" route="!WE" type="t0" waiting="0.00" lane="WC_0" pos="25.58" speed="13.48" angle="90.00" x="25.58" y="95.05"/>
    </timestep>
    <timestep time="3.00">
        <vehicle id="WE.0" eclass="HBEFA4/UBus_Artic_gt18t_Euro-VIs_D-E" CO2="25947.18" CO="1.37" HC="0.61" NOx="219.04" PMx="1.87" fuel="8338.76" electricity="0.00" noise="77.12" route="!WE" type="t0" waiting="0.00" lane="WC_0" pos="39.44" speed="13.85" angle="90.00" x="39.44" y="95.05"/>
        <vehicle id="WE.1" eclass="HBEFA4/UBus_Artic_gt18t_Euro-VIs_D-E" CO2="13983.11" CO="0.89" HC="0.60" NOx="121.44" PMx="1.81" fuel="4492.79" electricity="0.00" noise="75.45" route="!WE" type="t0" waiting="0.00" lane="WC_0" pos="12.10" speed="13.60" angle="90.00" x="12.10" y="95.05"/>
    </timestep>
    <timestep time="4.00">
        <vehicle id="WE.0" eclass="HBEFA4/UBus_Artic_gt18t_Euro-VIs_D-E" CO2="0.00" CO="0.00" HC="0.00" NOx="0.00" PMx="0.00" fuel="0.00" electricity="0.00" noise="74.65" route="!WE" type="t0" waiting="0.00" lane="WC_0" pos="53.06" speed="13.62" angle="90.00" x="53.06" y="95.05"/>
        <vehicle id="WE.1" eclass="HBEFA4/UBus_Artic_gt18t_Euro-VIs_D-E" CO2="0.00" CO="0.00" HC="0.00" NOx="0.00" PMx="0.00" fuel="0.00" electricity="0.00" noise="73.07" route="!WE" type="t0" waiting="0.00" lane="WC_0" pos="25.10" speed="13.00" angle="90.00" x="25.10" y="95.05"/>
    </timestep>
    <timestep time="5.00">
        <vehicle id="WE.0" eclass="HBEFA4/UBus_Artic_gt18t_Euro-VIs_D-E" CO2="0.00" CO="0.00" HC="0.00" NOx="0.00" PMx="0.00" fuel="0.00" electricity="0.00" noise="74.62" route="!WE" type="t0" waiting="0.00" lane="WC_0" pos="66.49" speed="13.43" angle="90.00" x="66.49" y="95.05"/>
        <vehicle id="WE.1" eclass="HBEFA4/UBus_Artic_gt18t_Euro-VIs_D-E" CO2="13635.80" CO="0.89" HC="0.57" NOx="118.39" PMx="1.77" fuel="4381.20" electricity="0.00" noise="75.04" route="!WE" type="t0" waiting="0.00" lane="WC_0" pos="38.10" speed="13.00" angle="90.00" x="38.10" y="95.05"/>
    </timestep>
    <timestep time="6.00">
        <vehicle id="WE.0" eclass="HBEFA4/UBus_Artic_gt18t_Euro-VIs_D-E" CO2="0.00" CO="0.00" HC="0.00" NOx="0.00" PMx="0.00" fuel="0.00" electricity="0.00" noise="69.74" route="!WE" type="t0" waiting="0.00" lane="WC_0" pos="78.13" speed="11.65" angle="90.00" x="78.13" y="95.05"/>
        <vehicle id="WE.1" eclass="HBEFA4/UBus_Artic_gt18t_Euro-VIs_D-E" CO2="14782.75" CO="0.94" HC="0.57" NOx="127.83" PMx="1.78" fuel="4749.90" electricity="0.00" noise="75.21" route="!WE" type="t0" waiting="0.00" lane="WC_0" pos="51.13" speed="13.03" angle="90.00" x="51.13" y="95.05"/>
    </timestep>
    <timestep time="7.00">
        <vehicle id="WE.0" eclass="HBEFA4/UBus_Artic_gt18t_Euro-VIs_D-E" CO2="0.00" CO="0.00" HC="0.00" NOx="0.00" PMx="0.00" fuel="0.00" electricity="0.00" noise="64.15" route="!WE" type="t0" waiting="0.00" lane="WC_0" pos="85.82" speed="7.69" angle="90.00" x="85.82" y="95.05"/>
        <vehicle id="WE.1" eclass="HBEFA4/UBus_Artic_gt18t_Euro-VIs_D-E" CO2="0.00" CO="0.00" HC="0.00" NOx="0.00" PMx="0.00" fuel="0.00" electricity="0.00" noise="70.88" route="!WE" type="t0" waiting="0.00" lane="WC_0" pos="63.01" speed="11.88" angle="90.00" x="63.01" y="95.05"/>
    </timestep>
    <timestep time="8.00">
        <vehicle id="WE.0" eclass="HBEFA4/UBus_Artic_gt18t_Euro-VIs_D-E" CO2="0.00" CO="0.00" HC="0.00" NOx="0.00" PMx="0.00" fuel="0.00" electricity="0.00" noise="58.71" route="!WE" type="t0" waiting="0.00" lane="WC_0" pos="90.24" speed="4.42" angle="90.00" x="90.24" y="95.05"/>
        <vehicle id="WE.1" eclass="HBEFA4/UBus_Artic_gt18t_Euro-VIs_D-E" CO2="0.00" CO="0.00" HC="0.00" NOx="0.00" PMx="0.00" fuel="0.00" electricity="0.00" noise="64.40" route="!WE" type="t0" waiting="0.00" lane="WC_1" pos="70.89" speed="7.88" angle="90.00" x="70.89" y="98.35"/>
    </timestep>
    <timestep time="9.00">
        <vehicle id="WE.0" eclass="HBEFA4/UBus_Artic_gt18t_Euro-VIs_D-E" CO2="0.00" CO="0.00" HC="0.00" NOx="0.00" PMx="0.00" fuel="0.00" electricity="0.00" noise="46.50" route="!WE" type="t0" waiting="0.00" lane="WC_0" pos="90.83" speed="0.59" angle="90.00" x="90.83" y="95.05"/>
        <vehicle id="WE.1" eclass="HBEFA4/UBus_Artic_gt18t_Euro-VIs_D-E" CO2="26927.55" CO="1.71" HC="0.40" NOx="234.23" PMx="1.60" fuel="8654.46" electricity="0.00" noise="75.05" route="!WE" type="t0" waiting="0.00" lane="WC_1" pos="79.40" speed="8.52" angle="90.00" x="79.40" y="98.35"/>
    </timestep>
    <timestep time="10.00">
        <vehicle id="WE.0" eclass="HBEFA4/UBus_Artic_gt18t_Euro-VIs_D-E" CO2="2307.56" CO="0.28" HC="0.32" NOx="3.96" PMx="1.46" fuel="740.72" electricity="0.00" noise="64.48" route="!WE" type="t0" waiting="0.00" lane="WC_0" pos="90.94" speed="0.11" angle="90.00" x="90.94" y="95.05"/>
        <vehicle id="WE.1" eclass="HBEFA4/UBus_Artic_gt18t_Euro-VIs_D-E" CO2="0.00" CO="0.00" HC="0.00" NOx="0.00" PMx="0.00" fuel="0.00" electricity="0.00" noise="66.71" route="!WE" type="t0" waiting="0.00" lane="WC_1" pos="86.75" speed="7.35" angle="90.00" x="86.75" y="98.35"/>
    </timestep>
    <timestep time="11.00">
        <vehicle id="WE.0" eclass="HBEFA4/UBus_Artic_gt18t_Euro-VIs_D-E" CO2="6626.60" CO="0.77" HC="0.32" NOx="52.97" PMx="1.46" fuel="2129.21" electricity="0.00" noise="66.56" route="!WE" type="t0" waiting="1.00" lane="WC_0" pos="90.95" speed="0.01" angle="90.00" x="90.95" y="95.05"/>
        <vehicle id="WE.1" eclass="HBEFA4/UBus_Artic_gt18t_Euro-VIs_D-E" CO2="0.00" CO="0.00" HC="0.00" NOx="0.00" PMx="0.00" fuel="0.00" electricity="0.00" noise="56.73" route="!WE" type="t0" waiting="0.00" lane="WC_1" pos="90.44" speed="3.69" angle="90.00" x="90.44" y="98.35"/>
    </timestep>
    <timestep time="12.00">
        <vehicle id="WE.0" eclass="HBEFA4/UBus_Artic_gt18t_Euro-VIs_D-E" CO2="7637.63" CO="0.88" HC="0.32" NOx="64.50" PMx="1.46" fuel="2454.23" electricity="0.00" noise="67.05" route="!WE" type="t0" waiting="2.00" lane="WC_0" pos="90.95" speed="0.00" angle="90.00" x="90.95" y="95.05"/>
        <vehicle id="WE.1" eclass="HBEFA4/UBus_Artic_gt18t_Euro-VIs_D-E" CO2="0.00" CO="0.00" HC="0.32" NOx="0.00" PMx="1.45" fuel="0.00" electricity="0.00" noise="48.74" route="!WE" type="t0" waiting="0.00" lane="WC_1" pos="90.81" speed="0.37" angle="90.00" x="90.81" y="98.35"/>
    </timestep>
    <timestep time="13.00">
        <vehicle id="WE.0" eclass="HBEFA4/UBus_Artic_gt18t_Euro-VIs_D-E" CO2="7750.94" CO="0.89" HC="0.32" NOx="65.80" PMx="1.46" fuel="2490.66" electricity="0.00" noise="67.11" route="!WE" type="t0" waiting="3.00" lane="WC_0" pos="90.95" speed="0.00" angle="90.00" x="90.95" y="95.05"/>
        <vehicle id="WE.1" eclass="HBEFA4/UBus_Artic_gt18t_Euro-VIs_D-E" CO2="4463.79" CO="0.52" HC="0.32" NOx="28.37" PMx="1.46" fuel="1433.90" electricity="0.00" noise="65.52" route="!WE" type="t0" waiting="1.00" lane="WC_1" pos="90.89" speed="0.08" angle="90.00" x="90.89" y="98.35"/>
    </timestep>
    <timestep time="14.00">
        <vehicle id="WE.0" eclass="HBEFA4/UBus_Artic_gt18t_Euro-VIs_D-E" CO2="7750.26" CO="0.89" HC="0.32" NOx="65.79" PMx="1.46" fuel="2490.44" electricity="0.00" noise="67.11" route="!WE" type="t0" waiting="4.00" lane="WC_0" pos="90.95" speed="0.00" angle="90.00" x="90.95" y="95.05"/>
        <vehicle id="WE.1" eclass="HBEFA4/UBus_Artic_gt18t_Euro-VIs_D-E" CO2="7485.91" CO="0.86" HC="0.32" NOx="62.73" PMx="1.46" fuel="2405.45" electricity="0.00" noise="66.99" route="!WE" type="t0" waiting="2.00" lane="WC_1" pos="90.94" speed="0.05" angle="90.00" x="90.94" y="98.35"/>
    </timestep>
    <timestep time="15.00">
        <vehicle id="WE.0" eclass="HBEFA4/UBus_Artic_gt18t_Euro-VIs_D-E" CO2="7752.00" CO="0.89" HC="0.32" NOx="65.81" PMx="1.46" fuel="2491.00" electricity="0.00" noise="67.11" route="!WE" type="t0" waiting="5.00" lane="WC_0" pos="90.95" speed="0.00" angle="90.00" x="90.95" y="95.05"/>
        <vehicle id="WE.1" eclass="HBEFA4/UBus_Artic_gt18t_Euro-VIs_D-E" CO2="7314.05" CO="0.84" HC="0.32" NOx="60.80" PMx="1.46" fuel="2350.21" electricity="0.00" noise="66.90" route="!WE" type="t0" waiting="3.00" lane="WC_1" pos="90.95" speed="0.01" angle="90.00" x="90.95" y="98.35"/>
    </timestep>
    <timestep time="16.00">
        <vehicle id="WE.0" eclass="HBEFA4/UBus_Artic_gt18t_Euro-VIs_D-E" CO2="7752.00" CO="0.89" HC="0.32" NOx="65.81" PMx="1.46" fuel="2491.00" electricity="0.00" noise="67.11" route="!WE" type="t0" waiting="6.00" lane="WC_0" pos="90.95" speed="0.00" angle="90.00" x="90.95" y="95.05"/>
        <vehicle id="WE.1" eclass="HBEFA4/UBus_Artic_gt18t_Euro-VIs_D-E" CO2="7621.98" CO="0.88" HC="0.32" NOx="64.33" PMx="1.46" fuel="2449.20" electricity="0.00" noise="67.05" route="!WE" type="t0" waiting="4.00" lane="WC_1" pos="90.95" speed="0.00" angle="90.00" x="90.95" y="98.35"/>
    </timestep>
    <timestep time="17.00">
        <vehicle id="WE.0" eclass="HBEFA4/UBus_Artic_gt18t_Euro-VIs_D-E" CO2="7752.00" CO="0.89" HC="0.32" NOx="65.81" PMx="1.46" fuel="2491.00" electricity="0.00" noise="67.11" route="!WE" type="t0" waiting="7.00" lane="WC_0" pos="90.95" speed="0.00" angle="90.00" x="90.95" y="95.05"/>
        <vehicle id="WE.1" eclass="HBEFA4/UBus_Artic_gt18t_Euro-VIs_D-E" CO2="7748.63" CO="0.89" HC="0.32" NOx="65.77" PMx="1.46" fuel="2489.92" electricity="0.00" noise="67.11" route="!WE" type="t0" waiting="5.00" lane="WC_1" pos="90.95" speed="0.00" angle="90.00" x="90.95" y="98.35"/>
    </timestep>
    <timestep time="18.00">
        <vehicle id="WE.0" eclass="HBEFA4/UBus_Artic_gt18t_Euro-VIs_D-E" CO2="7752.00" CO="0.89" HC="0.32" NOx="65.81" PMx="1.46" fuel="2491.00" electricity="0.00" noise="67.11" route="!WE" type="t0" waiting="8.00" lane="WC_0" pos="90.95" speed="0.00" angle="90.00" x="90.95" y="95.05"/>
        <vehicle id="WE.1" eclass="HBEFA4/UBus_Artic_gt18t_Euro-VIs_D-E" CO2="7753.74" CO="0.89" HC="0.32" NOx="65.83" PMx="1.46" fuel="2491.56" electricity="0.00" noise="67.11" route="!WE" type="t0" waiting="6.00" lane="WC_1" pos="90.95" speed="0.00" angle="90.00" x="90.95" y="98.35"/>
        <vehicle id="WE.2" eclass="HBEFA4/UBus_Artic_gt18t_Euro-VIs_D-E" CO2="14116.40" CO="0.89" HC="0.62" NOx="122.63" PMx="1.83" fuel="4535.61" electricity="0.00" noise="75.64" route="!WE" type="t0" waiting="0.00" lane="WC_0" pos="12.10" speed="13.89" angle="90.00" x="12.10" y="95.05"/>
    </timestep>
    <timestep time="19.00">
        <vehicle id="WE.0" eclass="HBEFA4/UBus_Artic_gt18t_Euro-VIs_D-E" CO2="7752.00" CO="0.89" HC="0.32" NOx="65.81" PMx="1.46" fuel="2491.00" electricity="0.00" noise="67.11" route="!WE" type="t0" waiting="9.00" lane="WC_0" pos="90.95" speed="0.00" angle="90.00" x="90.95" y="95.05"/>
        <vehicle id="WE.1" eclass="HBEFA4/UBus_Artic_gt18t_Euro-VIs_D-E" CO2="7750.33" CO="0.89" HC="0.32" NOx="65.79" PMx="1.46" fuel="2490.46" electricity="0.00" noise="67.11" route="!WE" type="t0" waiting="7.00" lane="WC_1" pos="90.95" speed="0.00" angle="90.00" x="90.95" y="98.35"/>
        <vehicle id="WE.2" eclass="HBEFA4/UBus_Artic_gt18t_Euro-VIs_D-E" CO2="0.00" CO="0.00" HC="0.00" NOx="0.00" PMx="0.00" fuel="0.00" electricity="0.00" noise="73.95" route="!WE" type="t0" waiting="0.00" lane="WC_0" pos="25.58" speed="13.48" angle="90.00" x="25.58" y="95.05"/>
    </timestep>
    <timestep time="20.00">
        <vehicle id="WE.0" eclass="HBEFA4/UBus_Artic_gt18t_Euro-VIs_D-E" CO2="7752.00" CO="0.89" HC="0.32" NOx="65.81" PMx="1.46" fuel="2491.00" electricity="0.00" noise="67.11" route="!WE" type="t0" waiting="10.00" lane="WC_0" pos="90.95" speed="0.00" angle="90.00" x="90.95" y="95.05"/>
        <vehicle id="WE.1" eclass="HBEFA4/UBus_Artic_gt18t_Euro-VIs_D-E" CO2="7752.00" CO="0.89" HC="0.32" NOx="65.81" PMx="1.46" fuel="2491.00" electricity="0.00" noise="67.11" route="!WE" type="t0" waiting="8.00" lane="WC_1" pos="90.95" speed="0.00" angle="90.00" x="90.95" y="98.35"/>
        <vehicle id="WE.2" eclass="HBEFA4/UBus_Artic_gt18t_Euro-VIs_D-E" CO2="22654.55" CO="1.24" HC="0.61" NOx="192.24" PMx="1.85" fuel="7280.31" electricity="0.00" noise="76.63" route="!WE" type="t0" waiting="0.00" lane="WC_0" pos="39.32" speed="13.75" angle="90.00" x="39.32" y="95.05"/>
    </timestep>
    <timestep time="21.00">
        <vehicle id="WE.0" eclass="HBEFA4/UBus_Artic_gt18t_Euro-VIs_D-E" CO2="7752.00" CO="0.89" HC="0.32" NOx="65.81" PMx="1.46" fuel="2491.00" electricity="0.00" noise="67.11" route="!WE" type="t0" waiting="11.00" lane="WC_0" pos="90.95" speed="0.00" angle="90.00" x="90.95" y="95.05"/>
        <vehicle id="WE.1" eclass="HBEFA4/UBus_Artic_gt18t_Euro-VIs_D-E" CO2="7752.00" CO="0.89" HC="0.32" NOx="65.81" PMx="1.46" fuel="2491.00" electricity="0.00" noise="67.11" route="!WE" type="t0" waiting="9.00" lane="WC_1" pos="90.95" speed="0.00" angle="90.00" x="90.95" y="98.35"/>
        <vehicle id="WE.2" eclass="HBEFA4/UBus_Artic_gt18t_Euro-VIs_D-E" CO2="0.00" CO="0.00" HC="0.00" NOx="0.00" PMx="0.00" fuel="0.00" electricity="0.00" noise="74.88" route="!WE" type="t0" waiting="0.00" lane="WC_0" pos="52.92" speed="13.59" angle="90.00" x="52.92" y="95.05"/>
    </timestep>
    <timestep time="22.00">
        <vehicle id="WE.0" eclass="HBEFA4/UBus_Artic_gt18t_Euro-VIs_D-E" CO2="7752.00" CO="0.89" HC="0.32" NOx="65.81" PMx="1.46" fuel="2491.00" electricity="0.00" noise="67.11" route="!WE" type="t0" waiting="12.00" lane="WC_0" pos="90.95" speed="0.00" angle="90.00" x="90.95" y="95.05"/>
        <vehicle id="WE.1" eclass="HBEFA4/UBus_Artic_gt18t_Euro-VIs_D-E" CO2="7752.00" CO="0.89" HC="0.32" NOx="65.81" PMx="1.46" fuel="2491.00" electricity="0.00" noise="67.11" route="!WE" type="t0" waiting="10.00" lane="WC_1" pos="90.95" speed="0.00" angle="90.00" x="90.95" y="98.35"/>
        <vehicle id="WE.2" eclass="HBEFA4/UBus_Artic_gt18t_Euro-VIs_D-E" CO2="0.00" CO="0.00" HC="0.00" NOx="0.00" PMx="0.00" fuel="0.00" electricity="0.00" noise="69.36" route="!WE" type="t0" waiting="0.00" lane="WC_0" pos="64.45" speed="11.53" angle="90.00" x="64.45" y="95.05"/>
        <vehicle id="WE.3" eclass="HBEFA4/UBus_Artic_gt18t_Euro-VIs_D-E" CO2="14116.40" CO="0.89" HC="0.62" NOx="122.63" PMx="1.83" fuel="4535.61" electricity="0.00" noise="75.64" route="!WE" type="t0" waiting="0.00" lane="WC_0" pos="12.10" speed="13.89" angle="90.00" x="12.10" y="95.05"/>
    </timestep>
    <timestep time="23.00">
        <vehicle id="WE.0" eclass="HBEFA4/UBus_Artic_gt18t_Euro-VIs_D-E" CO2="7752.00" CO="0.89" HC="0.32" NOx="65.81" PMx="1.46" fuel="2491.00" electricity="0.00" noise="67.11" route="!WE" type="t0" waiting="13.00" lane="WC_0" pos="90.95" speed="0.00" angle="90.00" x="90.95" y="95.05"/>
        <vehicle id="WE.1" eclass="HBEFA4/UBus_Artic_gt18t_Euro-VIs_D-E" CO2="7752.00" CO="0.89" HC="0.32" NOx="65.81" PMx="1.46" fuel="2491.00" electricity="0.00" noise="67.11" route="!WE" type="t0" waiting="11.00" lane="WC_1" pos="90.95" speed="0.00" angle="90.00" x="90.95" y="98.35"/>
        <vehicle id="WE.2" eclass="HBEFA4/UBus_Artic_gt18t_Euro-VIs_D-E" CO2="0.00" CO="0.00" HC="0.00" NOx="0.00" PMx="0.00" fuel="0.00" electricity="0.00" noise="63.91" route="!WE" type="t0" waiting="0.00" lane="WC_0" pos="71.98" speed="7.53" angle="90.00" x="71.98" y="95.05"/>
        <vehicle id="WE.3" eclass="HBEFA4/UBus_Artic_gt18t_Euro-VIs_D-E" CO2="0.00" CO="0.00" HC="0.00" NOx="0.00" PMx="0.00" fuel="0.00" electricity="0.00" noise="74.96" route="!WE" type="t0" waiting="0.00" lane="WC_0" pos="25.83" speed="13.73" angle="90.00" x="25.83" y="95.05"/>
    </timestep>
    <timestep time="24.00">
        <vehicle id="WE.0" eclass="HBEFA4/UBus_Artic_gt18t_Euro-VIs_D-E" CO2="7752.00" CO="0.89" HC="0.32" NOx="65.81" PMx="1.46" fuel="2491.00" electricity="0.00" noise="67.11" route="!WE" type="t0" waiting="14.00" lane="WC_0" pos="90.95" speed="0.00" angle="90.00" x="90.95" y="95.05"/>
        <vehicle id="WE.1" eclass="HBEFA4/UBus_Artic_gt18t_Euro-VIs_D-E" CO2="7752.00" CO="0.89" HC="0.32" NOx="65.81" PMx="1.46" fuel="2491.00" electricity="0.00" noise="67.11" route="!WE" type="t0" waiting="12.00" lane="WC_1" pos="90.95" speed="0.00" angle="90.00" x="90.95" y="98.35"/>
        <vehicle id="WE.2" eclass="HBEFA4/UBus_Artic_gt18t_Euro-VIs_D-E" CO2="0.00" CO="0.00" HC="0.00" NOx="0.00" PMx="0.00" fuel="0.00" electricity="0.00" noise="57.57" route="!WE" type="t0" waiting="0.00" lane="WC_0" pos="75.98" speed="4.00" angle="90.00" x="75.98" y="95.05"/>
        <vehicle id="WE.3" eclass="HBEFA4/UBus_Artic_gt18t_Euro-VIs_D-E" CO2="15695.92" CO="0.96" HC="0.61" NOx="135.48" PMx="1.83" fuel="5043.38" electricity="0.00" noise="75.77" route="!WE" type="t0" waiting="0.00" lane="WC_0" pos="39.61" speed="13.78" angle="90.00" x="39.61" y="95.05"/>
        <vehicle id="WE.4" eclass="HBEFA4/UBus_Artic_gt18t_Euro-VIs_D-E" CO2="13978.76" CO="0.89" HC="0.60" NOx="121.41" PMx="1.81" fuel="4491.39" electricity="0.00" noise="75.45" route="!WE" type="t0" waiting="0.00" lane="WC_0" pos="12.10" speed="13.59" angle="90.00" x="12.10" y="95.05"/>
    </timestep>
    <timestep time="25.00">
        <vehicle id="WE.0" eclass="HBEFA4/UBus_Artic_gt18t_Euro-VIs_D-E" CO2="7752.00" CO="0.89" HC="0.32" NOx="65.81" PMx="1.46" fuel="2491.00" electricity="0.00" noise="67.11" route="!WE" type="t0" waiting="15.00" lane="WC_0" pos="90.95" speed="0.00" angle="90.00" x="90.95" y="95.05"/>
        <vehicle id="WE.1" eclass="HBEFA4/UBus_Artic_gt18t_Euro-VIs_D-E" CO2="7752.00" CO="0.89" HC="0.32" NOx="65.81" PMx="1.46" fuel="2491.00" electricity="0.00" noise="67.11" route="!WE" type="t0" waiting="13.00" lane="WC_1" pos="90.95" speed="0.00" angle="90.00" x="90.95" y="98.35"/>
        <vehicle id="WE.2" eclass="HBEFA4/UBus_Artic_gt18t_Euro-VIs_D-E" CO2="0.00" CO="0.00" HC="0.32" NOx="0.00" PMx="1.45" fuel="0.00" electricity="0.00" noise="46.21" route="!WE" type="t0" waiting="0.00" lane="WC_0" pos="76.21" speed="0.24" angle="90.00" x="76.21" y="95.05"/>
        <vehicle id="WE.3" eclass="HBEFA4/UBus_Artic_gt18t_Euro-VIs_D-E" CO2="0.00" CO="0.00" HC="0.00" NOx="0.00" PMx="0.00" fuel="0.00" electricity="0.00" noise="68.11" route="!WE" type="t0" waiting="0.00" lane="WC_0" pos="50.39" speed="10.78" angle="90.00" x="50.39" y="95.05"/>
        <vehicle id="WE.4" eclass="HBEFA4/UBus_Artic_gt18t_Euro-VIs_D-E" CO2="0.00" CO="0.00" HC="0.00" NOx="0.00" PMx="0.00" fuel="0.00" electricity="0.00" noise="74.31" route="!WE" type="t0" waiting="0.00" lane="WC_0" pos="25.42" speed="13.32" angle="90.00" x="25.42" y="95.05"/>
    </timestep>
    <timestep time="26.00">
        <vehicle id="WE.0" eclass="HBEFA4/UBus_Artic_gt18t_Euro-VIs_D-E" CO2="7752.00" CO="0.89" HC="0.32" NOx="65.81" PMx="1.46" fuel="2491.00" electricity="0.00" noise="67.11" route="!WE" type="t0" waiting="16.00" lane="WC_0" pos="90.95" speed="0.00" angle="90.00" x="90.95" y="95.05"/>
        <vehicle id="WE.1" eclass="HBEFA4/UBus_Artic_gt18t_Euro-VIs_D-E" CO2="7752.00" CO="0.89" HC="0.32" NOx="65.81" PMx="1.46" fuel="2491.00" electricity="0.00" noise="67.11" route="!WE" type="t0" waiting="14.00" lane="WC_1" pos="90.95" speed="0.00" angle="90.00" x="90.95" y="98.35"/>
        <vehicle id="WE.2" eclass="HBEFA4/UBus_Artic_gt18t_Euro-VIs_D-E" CO2="6838.72" CO="0.78" HC="0.32" NOx="55.31" PMx="1.46" fuel="2197.39" electricity="0.00" noise="66.69" route="!WE" type="t0" waiting="0.00" lane="WC_0" pos="76.37" speed="0.15" angle="90.00" x="76.37" y="95.05"/>
        <vehicle id="WE.3" eclass="HBEFA4/UBus_Artic_gt18t_Euro-VIs_D-E" CO2="0.00" CO="0.00" HC="0.00" NOx="0.00" PMx="0.00" fuel="0.00" electricity="0.00" noise="63.34" route="!WE" type="t0" waiting="0.00" lane="WC_1" pos="57.50" speed="7.11" angle="90.00" x="57.50" y="98.35"/>
        <vehicle id="WE.4" eclass="HBEFA4/UBus_Artic_gt18t_Euro-VIs_D-E" CO2="0.00" CO="0.00" HC="0.00" NOx="0.00" PMx="0.00" fuel="0.00" electricity="0.00" noise="67.60" route="!WE" type="t0" waiting="0.00" lane="WC_0" pos="35.72" speed="10.30" angle="90.00" x="35.72" y="95.05"/>
    </timestep>
    <timestep time="27.00">
        <vehicle id="WE.0" eclass="HBEFA4/UBus_Artic_gt18t_Euro-VIs_D-E" CO2="7752.00" CO="0.89" HC="0.32" NOx="65.81" PMx="1.46" fuel="2491.00" electricity="0.00" noise="67.11" route="!WE" type="t0" waiting="17.00" lane="WC_0" pos="90.95" speed="0.00" angle="90.00" x="90.95" y="95.05"/>
        <vehicle id="WE.1" eclass="HBEFA4/UBus_Artic_gt18t_Euro-VIs_D-E" CO2="7752.00" CO="0.89" HC="0.32" NOx="65.81" PMx="1.46" fuel="2491.00" electricity="0.00" noise="67.11" route="!WE" type="t0" waiting="15.00" lane="WC_1" pos="90.95" speed="0.00" angle="90.00" x="90.95" y="98.35"/>
        <vehicle id="WE.2" eclass="HBEFA4/UBus_Artic_gt18t_Euro-VIs_D-E" CO2="6769.70" CO="0.78" HC="0.32" NOx="54.57" PMx="1.46" fuel="2175.20" electricity="0.00" noise="66.64" route="!WE" type="t0" waiting="1.00" lane="WC_0" pos="76.43" speed="0.06" angle="90.00" x="76.43" y="95.05"/>
        <vehicle id="WE.3" eclass="HBEFA4/UBus_Artic_gt18t_Euro-VIs_D-E" CO2="37634.16" CO="2.32" HC="0.39" NOx="329.03" PMx="1.62" fuel="12096.30" electricity="0.00" noise="77.32" route="!WE" type="t0" waiting="0.00" lane="WC_1" pos="65.71" speed="8.22" angle="90.00" x="65.71" y="98.35"/>
        <vehicle id="WE.4" eclass="HBEFA4/UBus_Artic_gt18t_Euro-VIs_D-E" CO2="37048.02" CO="2.01" HC="0.48" NOx="314.79" PMx="1.74" fuel="11907.54" electricity="0.00" noise="77.78" route="!WE" type="t0" waiting="0.00" lane="WC_0" pos="46.88" speed="11.17" angle="90.00" x="46.88" y="95.05"/>
    </timestep>
    <timestep time="28.00">
        <vehicle id="WE.0" eclass="HBEFA4/UBus_Artic_gt18t_Euro-VIs_D-E" CO2="7752.00" CO="0.89" HC="0.32" NOx="65.81" PMx="1.46" fuel="2491.00" electricity="0.00" noise="67.11" route="!WE" type="t0" waiting="18.00" lane="WC_0" pos="90.95" speed="0.00" angle="90.00" x="90.95" y="95.05"/>
        <vehicle id="WE.1" eclass="HBEFA4/UBus_Artic_gt18t_Euro-VIs_D-E" CO2="7752.00" CO="0.89" HC="0.32" NOx="65.81" PMx="1.46" fuel="2491.00" electricity="0.00" noise="67.11" route="!WE" type="t0" waiting="16.00" lane="WC_1" pos="90.95" speed="0.00" angle="90.00" x="90.95" y="98.35"/>
        <vehicle id="WE.2" eclass="HBEFA4/UBus_Artic_gt18t_Euro-VIs_D-E" CO2="7155.52" CO="0.82" HC="0.32" NOx="59.00" PMx="1.46" fuel="2299.24" electricity="0.00" noise="66.82" route="!WE" type="t0" waiting="2.00" lane="WC_0" pos="76.44" speed="0.01" angle="90.00" x="76.44" y="95.05"/>
        <vehicle id="WE.3" eclass="HBEFA4/UBus_Artic_gt18t_Euro-VIs_D-E" CO2="0.00" CO="0.00" HC="0.00" NOx="0.00" PMx="0.00" fuel="0.00" electricity="0.00" noise="65.90" route="!WE" type="t0" waiting="0.00" lane="WC_1" pos="72.64" speed="6.92" angle="90.00" x="72.64" y="98.35"/>
        <vehicle id="WE.4" eclass="HBEFA4/UBus_Artic_gt18t_Euro-VIs_D-E" CO2="0.00" CO="0.00" HC="0.00" NOx="0.00" PMx="0.00" fuel="0.00" electricity="0.00" noise="66.15" route="!WE" type="t0" waiting="0.00" lane="WC_0" pos="55.64" speed="8.76" angle="90.00" x="55.64" y="95.05"/>
    </timestep>
    <timestep time="29.00">
        <vehicle id="WE.0" eclass="HBEFA4/UBus_Artic_gt18t_Euro-VIs_D-E" CO2="7752.00" CO="0.89" HC="0.32" NOx="65.81" PMx="1.46" fuel="2491.00" electricity="0.00" noise="67.11" route="!WE" type="t0" waiting="19.00" lane="WC_0" pos="90.95" speed="0.00" angle="90.00" x="90.95" y="95.05"/>
        <vehicle id="WE.1" eclass="HBEFA4/UBus_Artic_gt18t_Euro-VIs_D-E" CO2="7752.00" CO="0.89" HC="0.32" NOx="65.81" PMx="1.46" fuel="2491.00" electricity="0.00" noise="67.11" route="!WE" type="t0" waiting="17.00" lane="WC_1" pos="90.95" speed="0.00" angle="90.00" x="90.95" y="98.35"/>
        <vehicle id="WE.2" eclass="HBEFA4/UBus_Artic_gt18t_Euro-VIs_D-E" CO2="7702.67" CO="0.89" HC="0.32" NOx="65.24" PMx="1.46" fuel="2475.14" electricity="0.00" noise="67.09" route="!WE" type="t0" waiting="3.00" lane="WC_0" pos="76.45" speed="0.01" angle="90.00" x="76.45" y="95.05"/>
        <vehicle id="WE.3" eclass="HBEFA4/UBus_Artic_gt18t_Euro-VIs_D-E" CO2="0.00" CO="0.00" HC="0.00" NOx="0.00" PMx="0.00" fuel="0.00" electricity="0.00" noise="56.27" route="!WE" type="t0" waiting="0.00" lane="WC_1" pos="76.08" speed="3.45" angle="90.00" x="76.08" y="98.35"/>
        <vehicle id="WE.4" eclass="HBEFA4/UBus_Artic_gt18t_Euro-VIs_D-E" CO2="0.00" CO="0.00" HC="0.00" NOx="0.00" PMx="0.00" fuel="0.00" electricity="0.00" noise="59.10" route="!WE" type="t0" waiting="0.00" lane="WC_0" pos="60.43" speed="4.79" angle="90.00" x="60.43" y="95.05"/>
    </timestep>
    <timestep time="30.00">
        <vehicle id="WE.0" eclass="HBEFA4/UBus_Artic_gt18t_Euro-VIs_D-E" CO2="7752.00" CO="0.89" HC="0.32" NOx="65.81" PMx="1.46" fuel="2491.00" electricity="0.00" noise="67.11" route="!WE" type="t0" waiting="20.00" lane="WC_0" pos="90.95" speed="0.00" angle="90.00" x="90.95" y="95.05"/>
        <vehicle id="WE.1" eclass="HBEFA4/UBus_Artic_gt18t_Euro-VIs_D-E" CO2="7752.00" CO="0.89" HC="0.32" NOx="65.81" PMx="1.46" fuel="2491.00" electricity="0.00" noise="67.11" route="!WE" type="t0" waiting="18.00" lane="WC_1" pos="90.95" speed="0.00" angle="90.00" x="90.95" y="98.35"/>
        <vehicle id="WE.2" eclass="HBEFA4/UBus_Artic_gt18t_Euro-VIs_D-E" CO2="7684.76" CO="0.88" HC="0.32" NOx="65.04" PMx="1.46" fuel="2469.38" electricity="0.00" noise="67.08" route="!WE" type="t0" waiting="4.00" lane="WC_0" pos="76.45" speed="0.00" angle="90.00" x="76.45" y="95.05"/>
        <vehicle id="WE.3" eclass="HBEFA4/UBus_Artic_gt18t_Euro-VIs_D-E" CO2="0.00" CO="0.00" HC="0.32" NOx="0.00" PMx="1.45" fuel="0.00" electricity="0.00" noise="49.75" route="!WE" type="t0" waiting="0.00" lane="WC_1" pos="76.39" speed="0.31" angle="90.00" x="76.39" y="98.35"/>
        <vehicle id="WE.4" eclass="HBEFA4/UBus_Artic_gt18t_Euro-VIs_D-E" CO2="0.00" CO="0.00" HC="0.00" NOx="0.00" PMx="0.00" fuel="0.00" electricity="0.00" noise="51.25" route="!WE" type="t0" waiting="0.00" lane="WC_0" pos="61.93" speed="1.50" angle="90.00" x="61.93" y="95.05"/>
    </timestep>
    <timestep time="31.00">
        <vehicle id="WE.0" eclass="HBEFA4/UBus_Artic_gt18t_Euro-VIs_D-E" CO2="7752.00" CO="0.89" HC="0.32" NOx="65.81" PMx="1.46" fuel="2491.00" electricity="0.00" noise="67.11" route="!WE" type="t0" waiting="21.00" lane="WC_0" pos="90.95" speed="0.00" angle="90.00" x="90.95" y="95.05"/>
        <vehicle id="WE.1" eclass="HBEFA4/UBus_Artic_gt18t_Euro-VIs_D-E" CO2="7752.00" CO="0.89" HC="0.32" NOx="65.81" PMx="1.46" fuel="2491.00" electricity="0.00" noise="67.11" route="!WE" type="t0" waiting="19.00" lane="WC_1" pos="90.95" speed="0.00" angle="90.00" x="90.95" y="98.35"/>
        <vehicle id="WE.2" eclass="HBEFA4/UBus_Artic_gt18t_Euro-VIs_D-E" CO2="7747.19" CO="0.89" HC="0.32" NOx="65.76" PMx="1.46" fuel="2489.45" electricity="0.00" noise="67.11" route="!WE" type="t0" waiting="5.00" lane="WC_0" pos="76.45" speed="0.00" angle="90.00" x="76.45" y="95.05"/>
        <vehicle id="WE.3" eclass="HBEFA4/UBus_Artic_gt18t_Euro-VIs_D-E" CO2="4700.57" CO="0.55" HC="0.32" NOx="31.03" PMx="1.46" fuel="1510.03" electricity="0.00" noise="65.62" route="!WE" type="t0" waiting="1.00" lane="WC_1" pos="76.44" speed="0.04" angle="90.00" x="76.44" y="98.35"/>
        <vehicle id="WE.4" eclass="HBEFA4/UBus_Artic_gt18t_Euro-VIs_D-E" CO2="0.00" CO="0.00" HC="0.32" NOx="0.00" PMx="1.46" fuel="0.00" electricity="0.00" noise="58.84" route="!WE" type="t0" waiting="1.00" lane="WC_0" pos="61.95" speed="0.02" angle="90.00" x="61.95" y="95.05"/>
    </timestep>
    <timestep time="32.00">
        <vehicle id="WE.0" eclass="HBEFA4/UBus_Artic_gt18t_Euro-VIs_D-E" CO2="7752.00" CO="0.89" HC="0.32" NOx="65.81" PMx="1.46" fuel="2491.00" electricity="0.00" noise="67.11" route="!WE" type="t0" waiting="22.00" lane="WC_0" pos="90.95" speed="0.00" angle="90.00" x="90.95" y="95.05"/>
        <vehicle id="WE.1" eclass="HBEFA4/UBus_Artic_gt18t_Euro-VIs_D-E" CO2="7752.00" CO="0.89" HC="0.32" NOx="65.81" PMx="1.46" fuel="2491.00" electricity="0.00" noise="67.11" route="!WE" type="t0" waiting="20.00" lane="WC_1" pos="90.95" speed="0.00" angle="90.00" x="90.95" y="98.35"/>