<?xml version="1.0" encoding="UTF-8"?>

<!-- generated on 2025-10-19T16:56:31.282888+01:00 by Eclipse SUMO sumo v1_24_0+1515-d90ea71dd9e
This data file and the accompanying materials
are made available under the terms of the Eclipse Public License v2.0
which accompanies this distribution, and is available at
http://www.eclipse.org/legal/epl-v20.html
This file may also be made available under the following Secondary
Licenses when the conditions for such availability set forth in the Eclipse
Public License 2.0 are satisfied: GNU General Public License, version 2
or later which is available at
https://www.gnu.org/licenses/old-licenses/gpl-2.0-standalone.html
SPDX-License-Identifier: EPL-2.0 OR GPL-2.0-or-later
<sumoConfiguration xmlns:xsi="http://www.w3.org/2001/XMLSchema-instance" xsi:noNamespaceSchemaLocation="http://sumo.dlr.de/xsd/sumoConfiguration.xsd">

    <input>
        <net-file value="net.net.xml"/>
        <route-files value="input_routes.rou.xml"/>
    </input>

    <output>
        <write-license value="true"/>
        <tripinfo-output value="tripinfos.xml"/>
    </output>

    <time>
        <begin value="20"/>
    </time>

    <processing>
        <default.speeddev value="0"/>
        <pedestrian.model value="nonInteracting"/>
    </processing>

    <report>
        <xml-validation value="never"/>
        <duration-log.disable value="true"/>
        <no-step-log value="true"/>
    </report>

</sumoConfiguration>
-->

<tripinfos xmlns:xsi="http://www.w3.org/2001/XMLSchema-instance" xsi:noNamespaceSchemaLocation="http://sumo.dlr.de/xsd/tripinfo_file.xsd">
    <tripinfo id="v1" depart="25.00" departLane="gneE0_0" departPos="5.10" departSpeed="0.00" departDelay="0.00" arrival="140.00" arrivalLane="gneE2_0" arrivalPos="198.50" arrivalSpeed="12.97" duration="115.00" routeLength="594.90" waitingTime="1.00" waitingCount="1" stopTime="60.00" timeLoss="11.86" rerouteNo="0" devices="tripinfo_v1 routing_v1 person_v1" vType="DEFAULT_VEHTYPE" speedFactor="1.00" vaporized=""/>
    <personinfo id="p2" depart="25.00" type="DEFAULT_PEDTYPE" speedFactor="1.00" duration="128.00" waitingTime="0.00" timeLoss="9.17" traveltime="128.00">
        <ride waitingTime="0.00" vehicle="v1" depart="25.00" arrival="56.00" arrivalPos="108.48" duration="31.00" routeLength="304.88" timeLoss="8.05"/>
        <walk depart="56.00" departPos="108.48" arrival="153.00" arrivalPos="46.65" duration="97.00" routeLength="133.17" timeLoss="1.12" maxSpeed="1.39" waitingTime="0.00"/>
    </personinfo>
    <personinfo id="p3" depart="25.00" type="DEFAULT_PEDTYPE" speedFactor="1.00" duration="128.00" waitingTime="0.00" timeLoss="9.17" traveltime="128.00">
        <ride waitingTime="0.00" vehicle="v1" depart="25.00" arrival="56.00" arrivalPos="108.48" duration="31.00" routeLength="304.88" timeLoss="8.05"/>
        <walk depart="56.00" departPos="108.48" arrival="153.00" arrivalPos="46.65" duration="97.00" routeLength="133.17" timeLoss="1.12" maxSpeed="1.39" waitingTime="0.00"/>
    </personinfo>
</tripinfos>
