<?xml version="1.0" encoding="UTF-8"?>

<!-- generated on 2025-10-19T17:00:32.630326+01:00 by Eclipse SUMO sumo v1_24_0+1515-d90ea71dd9e
This data file and the accompanying materials
are made available under the terms of the Eclipse Public License v2.0
which accompanies this distribution, and is available at
http://www.eclipse.org/legal/epl-v20.html
This file may also be made available under the following Secondary
Licenses when the conditions for such availability set forth in the Eclipse
Public License 2.0 are satisfied: GNU General Public License, version 2
or later which is available at
https://www.gnu.org/licenses/old-licenses/gpl-2.0-standalone.html
SPDX-License-Identifier: EPL-2.0 OR GPL-2.0-or-later
<sumoConfiguration xmlns:xsi="http://www.w3.org/2001/XMLSchema-instance" xsi:noNamespaceSchemaLocation="http://sumo.dlr.de/xsd/sumoConfiguration.xsd">

    <input>
        <net-file value="net.net.xml"/>
        <route-files value="input_routes.rou.xml"/>
    </input>

    <output>
        <write-license value="true"/>
        <tripinfo-output value="tripinfos.xml"/>
    </output>

    <time>
        <begin value="20"/>
    </time>

    <processing>
        <default.speeddev value="0"/>
        <pedestrian.model value="nonInteracting"/>
    </processing>

    <report>
        <xml-validation value="never"/>
        <duration-log.disable value="true"/>
        <no-step-log value="true"/>
    </report>

    <mesoscopic>
        <mesosim value="true"/>
    </mesoscopic>

</sumoConfiguration>
-->

<tripinfos xmlns:xsi="http://www.w3.org/2001/XMLSchema-instance" xsi:noNamespaceSchemaLocation="http://sumo.dlr.de/xsd/tripinfo_file.xsd">
    <tripinfo id="v1" depart="25.00" departLane="gneE0_0" departPos="0.00" departSpeed="13.89" departDelay="0.00" arrival="128.00" arrivalLane="gneE2_0" arrivalPos="198.50" arrivalSpeed="13.89" duration="103.00" routeLength="592.00" waitingTime="0.00" waitingCount="0" stopTime="60.00" timeLoss="60.00" rerouteNo="0" devices="tripinfo_v1 routing_v1 person_v1" vType="DEFAULT_VEHTYPE" speedFactor="1.00" vaporized=""/>
    <personinfo id="p2" depart="25.00" type="DEFAULT_PEDTYPE" speedFactor="1.00" duration="127.00" waitingTime="0.00" timeLoss="1.21" traveltime="127.00">
        <ride waitingTime="0.00" vehicle="v1" depart="25.00" arrival="47.00" arrivalPos="97.50" duration="22.00" routeLength="296.00" timeLoss="0.00"/>
        <walk depart="47.00" departPos="97.50" arrival="152.00" arrivalPos="46.65" duration="105.00" routeLength="144.15" timeLoss="1.21" maxSpeed="1.39" waitingTime="0.00"/>
    </personinfo>
    <personinfo id="p3" depart="25.00" type="DEFAULT_PEDTYPE" speedFactor="1.00" duration="127.00" waitingTime="0.00" timeLoss="1.21" traveltime="127.00">
        <ride waitingTime="0.00" vehicle="v1" depart="25.00" arrival="47.00" arrivalPos="97.50" duration="22.00" routeLength="296.00" timeLoss="0.00"/>
        <walk depart="47.00" departPos="97.50" arrival="152.00" arrivalPos="46.65" duration="105.00" routeLength="144.15" timeLoss="1.21" maxSpeed="1.39" waitingTime="0.00"/>
    </personinfo>
</tripinfos>
