<?xml version="1.0" encoding="UTF-8"?>

<!-- generated on 2026-01-22T16:25:24.638159+01:00 by Eclipse SUMO sumo v1_25_0+1143-5cfd67bbee0
This data file and the accompanying materials
are made available under the terms of the Eclipse Public License v2.0
which accompanies this distribution, and is available at
http://www.eclipse.org/legal/epl-v20.html
This file may also be made available under the following Secondary
Licenses when the conditions for such availability set forth in the Eclipse
Public License 2.0 are satisfied: GNU General Public License, version 2
or later which is available at
https://www.gnu.org/licenses/old-licenses/gpl-2.0-standalone.html
SPDX-License-Identifier: EPL-2.0 OR GPL-2.0-or-later
<sumoConfiguration xmlns:xsi="http://www.w3.org/2001/XMLSchema-instance" xsi:noNamespaceSchemaLocation="http://sumo.dlr.de/xsd/sumoConfiguration.xsd">

    <input>
        <net-file value="net.net.xml"/>
        <route-files value="input_routes.rou.xml"/>
        <additional-files value="input_additional.add.xml"/>
    </input>

    <output>
        <write-license value="true"/>
        <tripinfo-output value="tripinfos.xml"/>
        <railsignal-block-output value="railsignal_blocks.xml"/>
        <stop-output value="stopinfos.xml"/>
    </output>

    <processing>
        <time-to-teleport.railsignal-deadlock value="200"/>
        <default.speeddev value="0"/>
    </processing>

    <report>
        <xml-validation value="never"/>
        <duration-log.disable value="true"/>
        <no-step-log value="true"/>
    </report>

</sumoConfiguration>
-->

<tripinfos xmlns:xsi="http://www.w3.org/2001/XMLSchema-instance" xsi:noNamespaceSchemaLocation="http://sumo.dlr.de/xsd/tripinfo_file.xsd">
    <tripinfo id="t0" depart="0.00" departLane="a_0" departPos="50.10" departSpeed="0.00" departDelay="0.00" arrival="127.00" arrivalLane="b_0" arrivalPos="250.00" arrivalSpeed="0.25" duration="127.00" routeLength="401.78" waitingTime="0.00" waitingCount="0" stopTime="65.00" timeLoss="0.00" rerouteNo="0" devices="tripinfo_t0 routing_t0" vType="splitTrain" speedFactor="1.00" vaporized=""/>
    <tripinfo id="t1" depart="62.00" departLane="d_0" departPos="50.10" departSpeed="0.00" departDelay="32.00" arrival="172.00" arrivalLane="c_0" arrivalPos="191.72" arrivalSpeed="11.25" duration="110.00" routeLength="673.54" waitingTime="1.00" waitingCount="1" stopTime="5.00" timeLoss="4.42" rerouteNo="0" devices="tripinfo_t1 routing_t1" vType="splitTrain@t1" speedFactor="1.00" vaporized=""/>
</tripinfos>
