<?xml version="1.0" encoding="UTF-8"?>

<!-- generated on 05/02/13 15:10:52 by SUMO sumo Version 0.17.0
<?xml version="1.0" encoding="UTF-8"?>

<configuration xmlns:xsi="http://www.w3.org/2001/XMLSchema-instance" xsi:noNamespaceSchemaLocation="http://sumo-sim.org/xsd/sumoConfiguration.xsd">

    <input>
        <net-file value="net.net.xml"/>
        <additional-files value="input_routes.rou.xml,input_additional.add.xml"/>
    </input>

    <time>
        <begin value="0"/>
        <end value="150"/>
    </time>

    <report>
        <no-duration-log value="true"/>
        <no-step-log value="true"/>
    </report>

    <mesoscopic>
        <mesosim value="true"/>
    </mesoscopic>

</configuration>
-->

<meandata xmlns:xsi="http://www.w3.org/2001/XMLSchema-instance" xsi:noNamespaceSchemaLocation="http://sumo-sim.org/xsd/meandata_file.xsd">
    <interval begin="0.00" end="15.00" id="dump_15">
        <edge id="1si" sampledSeconds="23.00" traveltime="43.41" density="6.47" occupancy="0.65" waitingTime="0.00" speed="5.46" departed="2" arrived="0" entered="0" left="0" laneChangedFrom="0" laneChangedTo="0"/>
    </interval>
    <interval begin="15.00" end="30.00" id="dump_15">
        <edge id="1si" sampledSeconds="30.00" traveltime="38.22" density="8.43" occupancy="0.84" waitingTime="0.00" speed="6.20" departed="0" arrived="0" entered="0" left="0" laneChangedFrom="0" laneChangedTo="0"/>
    </interval>
    <interval begin="30.00" end="45.00" id="dump_15">
        <edge id="1si" sampledSeconds="22.04" traveltime="35.95" density="6.20" occupancy="0.62" waitingTime="0.00" speed="6.60" departed="0" arrived="0" entered="0" left="1" laneChangedFrom="0" laneChangedTo="0"/>
        <edge id="4o" sampledSeconds="7.96" traveltime="48.86" density="1.09" occupancy="0.33" waitingTime="0.00" speed="10.00" departed="0" arrived="0" entered="1" left="0" laneChangedFrom="0" laneChangedTo="0"/>
    </interval>
    <interval begin="45.00" end="60.00" id="dump_15">
        <edge id="1si" sampledSeconds="3.43" traveltime="47.43" density="0.96" occupancy="0.10" waitingTime="0.00" speed="5.00" departed="0" arrived="0" entered="0" left="1" laneChangedFrom="0" laneChangedTo="0"/>
        <edge id="4o" sampledSeconds="26.57" traveltime="62.47" density="3.62" occupancy="1.09" waitingTime="0.00" speed="7.82" departed="0" arrived="0" entered="1" left="0" laneChangedFrom="0" laneChangedTo="0"/>
    </interval>
    <interval begin="60.00" end="75.00" id="dump_15">
        <edge id="4o" sampledSeconds="30.00" traveltime="65.15" density="4.09" occupancy="1.23" waitingTime="0.00" speed="7.50" departed="0" arrived="0" entered="0" left="0" laneChangedFrom="0" laneChangedTo="0"/>
    </interval>
    <interval begin="75.00" end="90.00" id="dump_15">
        <edge id="4o" sampledSeconds="25.90" traveltime="68.78" density="3.53" occupancy="1.06" waitingTime="0.00" speed="7.10" departed="0" arrived="1" entered="0" left="0" laneChangedFrom="0" laneChangedTo="0"/>
    </interval>
    <interval begin="90.00" end="105.00" id="dump_15">
        <edge id="4o" sampledSeconds="15.00" traveltime="97.73" density="2.05" occupancy="0.61" waitingTime="0.00" speed="5.00" departed="0" arrived="0" entered="0" left="0" laneChangedFrom="0" laneChangedTo="0"/>
    </interval>
    <interval begin="105.00" end="120.00" id="dump_15">
        <edge id="4o" sampledSeconds="15.00" traveltime="97.73" density="2.05" occupancy="0.61" waitingTime="0.00" speed="5.00" departed="0" arrived="0" entered="0" left="0" laneChangedFrom="0" laneChangedTo="0"/>
    </interval>
    <interval begin="120.00" end="135.00" id="dump_15">
        <edge id="4o" sampledSeconds="15.00" traveltime="97.73" density="2.05" occupancy="0.61" waitingTime="0.00" speed="5.00" departed="0" arrived="0" entered="0" left="0" laneChangedFrom="0" laneChangedTo="0"/>
    </interval>
    <interval begin="135.00" end="150.00" id="dump_15">
        <edge id="4o" sampledSeconds="11.16" traveltime="97.73" density="1.52" occupancy="0.46" waitingTime="0.00" speed="5.00" departed="0" arrived="1" entered="0" left="0" laneChangedFrom="0" laneChangedTo="0"/>
    </interval>
</meandata>
