<?xml version="1.0" encoding="UTF-8"?>

<!-- generated on 2022-04-06 08:02:49 by Eclipse SUMO sumo Version v1_12_0+1973-03c4644
This data file and the accompanying materials
are made available under the terms of the Eclipse Public License v2.0
which accompanies this distribution, and is available at
http://www.eclipse.org/legal/epl-v20.html
This file may also be made available under the following Secondary
Licenses when the conditions for such availability set forth in the Eclipse
Public License 2.0 are satisfied: GNU General Public License, version 2
or later which is available at
https://www.gnu.org/licenses/old-licenses/gpl-2.0-standalone.html
SPDX-License-Identifier: EPL-2.0 OR GPL-2.0-or-later
<configuration xmlns:xsi="http://www.w3.org/2001/XMLSchema-instance" xsi:noNamespaceSchemaLocation="http://sumo.dlr.de/xsd/sumoConfiguration.xsd">

    <input>
        <net-file value="net.net.xml"/>
        <route-files value="input_routes.rou.xml"/>
    </input>

    <output>
        <write-license value="true"/>
        <fcd-output value="fcd.xml"/>
    </output>

    <time>
        <step-length value="0.1"/>
    </time>

    <processing>
        <default.speeddev value="0"/>
    </processing>

    <report>
        <verbose value="true"/>
        <xml-validation value="never"/>
        <xml-validation.routes value="never"/>
        <duration-log.statistics value="true"/>
        <no-step-log value="true"/>
    </report>

    <gui_only>
        <tracker-interval value="0.1"/>
    </gui_only>

</configuration>
-->

<fcd-export xmlns:xsi="http://www.w3.org/2001/XMLSchema-instance" xsi:noNamespaceSchemaLocation="http://sumo.dlr.de/xsd/fcd_file.xsd">
    <timestep time="0.00">
        <vehicle id="0" x="5.10" y="0.00" angle="90.00" type="t" speed="13.89" pos="5.10" lane="gneE0_0" slope="0.00"/>
    </timestep>
    <timestep time="0.10">
        <vehicle id="0" x="6.47" y="0.00" angle="90.00" type="t" speed="13.66" pos="6.47" lane="gneE0_0" slope="0.00"/>
    </timestep>
    <timestep time="0.20">
        <vehicle id="0" x="7.84" y="0.00" angle="90.00" type="t" speed="13.70" pos="7.84" lane="gneE0_0" slope="0.00"/>
    </timestep>
    <timestep time="0.30">
        <vehicle id="0" x="9.22" y="0.00" angle="90.00" type="t" speed="13.88" pos="9.22" lane="gneE0_0" slope="0.00"/>
    </timestep>
    <timestep time="0.40">
        <vehicle id="0" x="10.60" y="0.00" angle="90.00" type="t" speed="13.76" pos="10.60" lane="gneE0_0" slope="0.00"/>
    </timestep>
    <timestep time="0.50">
        <vehicle id="0" x="11.97" y="0.00" angle="90.00" type="t" speed="13.74" pos="11.97" lane="gneE0_0" slope="0.00"/>
    </timestep>
    <timestep time="0.60">
        <vehicle id="0" x="13.36" y="0.00" angle="90.00" type="t" speed="13.88" pos="13.36" lane="gneE0_0" slope="0.00"/>
    </timestep>
    <timestep time="0.70">
        <vehicle id="0" x="14.73" y="0.00" angle="90.00" type="t" speed="13.70" pos="14.73" lane="gneE0_0" slope="0.00"/>
    </timestep>
    <timestep time="0.80">
        <vehicle id="0" x="16.11" y="0.00" angle="90.00" type="t" speed="13.83" pos="16.11" lane="gneE0_0" slope="0.00"/>
    </timestep>
    <timestep time="0.90">
        <vehicle id="0" x="17.49" y="0.00" angle="90.00" type="t" speed="13.75" pos="17.49" lane="gneE0_0" slope="0.00"/>
    </timestep>
    <timestep time="1.00">
        <vehicle id="0" x="18.86" y="0.00" angle="90.00" type="t" speed="13.70" pos="18.86" lane="gneE0_0" slope="0.00"/>
    </timestep>
    <timestep time="1.10">
        <vehicle id="0" x="20.25" y="0.00" angle="90.00" type="t" speed="13.89" pos="20.25" lane="gneE0_0" slope="0.00"/>
    </timestep>
    <timestep time="1.20">
        <vehicle id="0" x="21.62" y="0.00" angle="90.00" type="t" speed="13.72" pos="21.62" lane="gneE0_0" slope="0.00"/>
    </timestep>
    <timestep time="1.30">
        <vehicle id="0" x="23.00" y="0.00" angle="90.00" type="t" speed="13.77" pos="23.00" lane="gneE0_0" slope="0.00"/>
    </timestep>
    <timestep time="1.40">
        <vehicle id="0" x="24.37" y="0.00" angle="90.00" type="t" speed="13.77" pos="24.37" lane="gneE0_0" slope="0.00"/>
    </timestep>
    <timestep time="1.50">
        <vehicle id="0" x="25.75" y="0.00" angle="90.00" type="t" speed="13.74" pos="25.75" lane="gneE0_0" slope="0.00"/>
    </timestep>
    <timestep time="1.60">
        <vehicle id="0" x="27.13" y="0.00" angle="90.00" type="t" speed="13.82" pos="27.13" lane="gneE0_0" slope="0.00"/>
    </timestep>
    <timestep time="1.70">
        <vehicle id="0" x="28.52" y="0.00" angle="90.00" type="t" speed="13.87" pos="28.52" lane="gneE0_0" slope="0.00"/>
    </timestep>
    <timestep time="1.80">
        <vehicle id="0" x="29.88" y="0.00" angle="90.00" type="t" speed="13.66" pos="29.88" lane="gneE0_0" slope="0.00"/>
    </timestep>
    <timestep time="1.90">
        <vehicle id="0" x="31.26" y="0.00" angle="90.00" type="t" speed="13.81" pos="31.26" lane="gneE0_0" slope="0.00"/>
    </timestep>
    <timestep time="2.00">
        <vehicle id="0" x="32.63" y="0.00" angle="90.00" type="t" speed="13.71" pos="32.63" lane="gneE0_0" slope="0.00"/>
    </timestep>
    <timestep time="2.10">
        <vehicle id="0" x="34.02" y="0.00" angle="90.00" type="t" speed="13.88" pos="34.02" lane="gneE0_0" slope="0.00"/>
    </timestep>
    <timestep time="2.20">
        <vehicle id="0" x="35.40" y="0.00" angle="90.00" type="t" speed="13.76" pos="35.40" lane="gneE0_0" slope="0.00"/>
    </timestep>
    <timestep time="2.30">
        <vehicle id="0" x="36.78" y="0.00" angle="90.00" type="t" speed="13.81" pos="36.78" lane="gneE0_0" slope="0.00"/>
    </timestep>
    <timestep time="2.40">
        <vehicle id="0" x="38.15" y="0.00" angle="90.00" type="t" speed="13.73" pos="38.15" lane="gneE0_0" slope="0.00"/>
    </timestep>
    <timestep time="2.50">
        <vehicle id="0" x="39.52" y="0.00" angle="90.00" type="t" speed="13.65" pos="39.52" lane="gneE0_0" slope="0.00"/>
    </timestep>
    <timestep time="2.60">
        <vehicle id="0" x="40.88" y="0.00" angle="90.00" type="t" speed="13.68" pos="40.88" lane="gneE0_0" slope="0.00"/>
    </timestep>
    <timestep time="2.70">
        <vehicle id="0" x="42.25" y="0.00" angle="90.00" type="t" speed="13.66" pos="42.25" lane="gneE0_0" slope="0.00"/>
    </timestep>
    <timestep time="2.80">
        <vehicle id="0" x="43.63" y="0.00" angle="90.00" type="t" speed="13.79" pos="43.63" lane="gneE0_0" slope="0.00"/>
    </timestep>
    <timestep time="2.90">
        <vehicle id="0" x="45.00" y="0.00" angle="90.00" type="t" speed="13.75" pos="45.00" lane="gneE0_0" slope="0.00"/>
    </timestep>
    <timestep time="3.00">
        <vehicle id="0" x="46.39" y="0.00" angle="90.00" type="t" speed="13.83" pos="46.39" lane="gneE0_0" slope="0.00"/>
    </timestep>
    <timestep time="3.10">
        <vehicle id="0" x="47.77" y="0.00" angle="90.00" type="t" speed="13.88" pos="47.77" lane="gneE0_0" slope="0.00"/>
    </timestep>
    <timestep time="3.20">
        <vehicle id="0" x="49.16" y="0.00" angle="90.00" type="t" speed="13.81" pos="49.16" lane="gneE0_0" slope="0.00"/>
    </timestep>
    <timestep time="3.30">
        <vehicle id="0" x="50.52" y="0.00" angle="90.00" type="t" speed="13.69" pos="50.52" lane="gneE0_0" slope="0.00"/>
    </timestep>
    <timestep time="3.40">
        <vehicle id="0" x="51.91" y="0.00" angle="90.00" type="t" speed="13.85" pos="51.91" lane="gneE0_0" slope="0.00"/>
    </timestep>
    <timestep time="3.50">
        <vehicle id="0" x="53.27" y="0.00" angle="90.00" type="t" speed="13.64" pos="53.27" lane="gneE0_0" slope="0.00"/>
    </timestep>
    <timestep time="3.60">
        <vehicle id="0" x="54.66" y="0.00" angle="90.00" type="t" speed="13.88" pos="54.66" lane="gneE0_0" slope="0.00"/>
    </timestep>
    <timestep time="3.70">
        <vehicle id="0" x="56.03" y="0.00" angle="90.00" type="t" speed="13.71" pos="56.03" lane="gneE0_0" slope="0.00"/>
    </timestep>
    <timestep time="3.80">
        <vehicle id="0" x="57.41" y="0.00" angle="90.00" type="t" speed="13.80" pos="57.41" lane="gneE0_0" slope="0.00"/>
    </timestep>
    <timestep time="3.90">
        <vehicle id="0" x="58.80" y="0.00" angle="90.00" type="t" speed="13.86" pos="58.80" lane="gneE0_0" slope="0.00"/>
    </timestep>
    <timestep time="4.00">
        <vehicle id="0" x="60.19" y="0.00" angle="90.00" type="t" speed="13.86" pos="60.19" lane="gneE0_0" slope="0.00"/>
    </timestep>
    <timestep time="4.10">
        <vehicle id="0" x="61.56" y="0.00" angle="90.00" type="t" speed="13.78" pos="61.56" lane="gneE0_0" slope="0.00"/>
    </timestep>
    <timestep time="4.20">
        <vehicle id="0" x="62.93" y="0.00" angle="90.00" type="t" speed="13.64" pos="62.93" lane="gneE0_0" slope="0.00"/>
    </timestep>
    <timestep time="4.30">
        <vehicle id="0" x="64.31" y="0.00" angle="90.00" type="t" speed="13.82" pos="64.31" lane="gneE0_0" slope="0.00"/>
    </timestep>
    <timestep time="4.40">
        <vehicle id="0" x="65.69" y="0.00" angle="90.00" type="t" speed="13.83" pos="65.69" lane="gneE0_0" slope="0.00"/>
    </timestep>
    <timestep time="4.50">
        <vehicle id="0" x="67.08" y="0.00" angle="90.00" type="t" speed="13.85" pos="67.08" lane="gneE0_0" slope="0.00"/>
    </timestep>
    <timestep time="4.60">
        <vehicle id="0" x="68.45" y="0.00" angle="90.00" type="t" speed="13.74" pos="68.45" lane="gneE0_0" slope="0.00"/>
    </timestep>
    <timestep time="4.70">
        <vehicle id="0" x="69.83" y="0.00" angle="90.00" type="t" speed="13.83" pos="69.83" lane="gneE0_0" slope="0.00"/>
    </timestep>
    <timestep time="4.80">
        <vehicle id="0" x="71.20" y="0.00" angle="90.00" type="t" speed="13.68" pos="71.20" lane="gneE0_0" slope="0.00"/>
    </timestep>
    <timestep time="4.90">
        <vehicle id="0" x="72.59" y="0.00" angle="90.00" type="t" speed="13.87" pos="72.59" lane="gneE0_0" slope="0.00"/>
    </timestep>
    <timestep time="5.00">
        <vehicle id="0" x="73.96" y="0.00" angle="90.00" type="t" speed="13.72" pos="73.96" lane="gneE0_0" slope="0.00"/>
    </timestep>
    <timestep time="5.10">
        <vehicle id="0" x="75.33" y="0.00" angle="90.00" type="t" speed="13.70" pos="75.33" lane="gneE0_0" slope="0.00"/>
    </timestep>
    <timestep time="5.20">
        <vehicle id="0" x="76.70" y="0.00" angle="90.00" type="t" speed="13.73" pos="76.70" lane="gneE0_0" slope="0.00"/>
    </timestep>
    <timestep time="5.30">
        <vehicle id="0" x="78.08" y="0.00" angle="90.00" type="t" speed="13.71" pos="78.08" lane="gneE0_0" slope="0.00"/>
    </timestep>
    <timestep time="5.40">
        <vehicle id="0" x="79.44" y="0.00" angle="90.00" type="t" speed="13.65" pos="79.44" lane="gneE0_0" slope="0.00"/>
    </timestep>
    <timestep time="5.50">
        <vehicle id="0" x="80.80" y="0.00" angle="90.00" type="t" speed="13.64" pos="80.80" lane="gneE0_0" slope="0.00"/>
    </timestep>
    <timestep time="5.60">
        <vehicle id="0" x="82.18" y="0.00" angle="90.00" type="t" speed="13.81" pos="82.18" lane="gneE0_0" slope="0.00"/>
    </timestep>
    <timestep time="5.70">
        <vehicle id="0" x="83.56" y="0.00" angle="90.00" type="t" speed="13.76" pos="83.56" lane="gneE0_0" slope="0.00"/>
    </timestep>
    <timestep time="5.80">
        <vehicle id="0" x="84.94" y="0.00" angle="90.00" type="t" speed="13.74" pos="84.94" lane="gneE0_0" slope="0.00"/>
    </timestep>
    <timestep time="5.90">
        <vehicle id="0" x="86.32" y="0.00" angle="90.00" type="t" speed="13.85" pos="86.32" lane="gneE0_0" slope="0.00"/>
    </timestep>
    <timestep time="6.00">
        <vehicle id="0" x="87.68" y="0.00" angle="90.00" type="t" speed="13.64" pos="87.68" lane="gneE0_0" slope="0.00"/>
    </timestep>
    <timestep time="6.10">
        <vehicle id="0" x="89.07" y="0.00" angle="90.00" type="t" speed="13.84" pos="89.07" lane="gneE0_0" slope="0.00"/>
    </timestep>
    <timestep time="6.20">
        <vehicle id="0" x="90.44" y="0.00" angle="90.00" type="t" speed="13.72" pos="90.44" lane="gneE0_0" slope="0.00"/>
    </timestep>
    <timestep time="6.30">
        <vehicle id="0" x="91.83" y="0.00" angle="90.00" type="t" speed="13.85" pos="91.83" lane="gneE0_0" slope="0.00"/>
    </timestep>
    <timestep time="6.40">
        <vehicle id="0" x="93.21" y="0.00" angle="90.00" type="t" speed="13.88" pos="93.21" lane="gneE0_0" slope="0.00"/>
    </timestep>
    <timestep time="6.50">
        <vehicle id="0" x="94.60" y="0.00" angle="90.00" type="t" speed="13.82" pos="94.60" lane="gneE0_0" slope="0.00"/>
    </timestep>
    <timestep time="6.60">
        <vehicle id="0" x="95.97" y="0.00" angle="90.00" type="t" speed="13.75" pos="95.97" lane="gneE0_0" slope="0.00"/>
    </timestep>
    <timestep time="6.70">
        <vehicle id="0" x="97.34" y="0.00" angle="90.00" type="t" speed="13.65" pos="97.34" lane="gneE0_0" slope="0.00"/>
    </timestep>
    <timestep time="6.80">
        <vehicle id="0" x="98.72" y="0.00" angle="90.00" type="t" speed="13.87" pos="98.72" lane="gneE0_0" slope="0.00"/>
    </timestep>
    <timestep time="6.90">
        <vehicle id="0" x="100.11" y="0.00" angle="90.00" type="t" speed="13.84" pos="100.11" lane="gneE0_0" slope="0.00"/>
    </timestep>
    <timestep time="7.00">
        <vehicle id="0" x="101.47" y="0.00" angle="90.00" type="t" speed="13.63" pos="101.47" lane="gneE0_0" slope="0.00"/>
    </timestep>
    <timestep time="7.10">
        <vehicle id="0" x="102.85" y="0.00" angle="90.00" type="t" speed="13.81" pos="102.85" lane="gneE0_0" slope="0.00"/>
    </timestep>
    <timestep time="7.20">
        <vehicle id="0" x="104.23" y="0.00" angle="90.00" type="t" speed="13.80" pos="104.23" lane="gneE0_0" slope="0.00"/>
    </timestep>
    <timestep time="7.30">
        <vehicle id="0" x="105.62" y="0.00" angle="90.00" type="t" speed="13.87" pos="105.62" lane="gneE0_0" slope="0.00"/>
    </timestep>
    <timestep time="7.40">
        <vehicle id="0" x="106.99" y="0.00" angle="90.00" type="t" speed="13.74" pos="106.99" lane="gneE0_0" slope="0.00"/>
    </timestep>
    <timestep time="7.50">
        <vehicle id="0" x="108.38" y="0.00" angle="90.00" type="t" speed="13.84" pos="108.38" lane="gneE0_0" slope="0.00"/>
    </timestep>
    <timestep time="7.60">
        <vehicle id="0" x="109.76" y="0.00" angle="90.00" type="t" speed="13.84" pos="109.76" lane="gneE0_0" slope="0.00"/>
    </timestep>
    <timestep time="7.70">
        <vehicle id="0" x="111.15" y="0.00" angle="90.00" type="t" speed="13.88" pos="111.15" lane="gneE0_0" slope="0.00"/>
    </timestep>
    <timestep time="7.80">
        <vehicle id="0" x="112.53" y="0.00" angle="90.00" type="t" speed="13.87" pos="112.53" lane="gneE0_0" slope="0.00"/>
    </timestep>
    <timestep time="7.90">
        <vehicle id="0" x="113.90" y="0.00" angle="90.00" type="t" speed="13.70" pos="113.90" lane="gneE0_0" slope="0.00"/>
    </timestep>
    <timestep time="8.00">
        <vehicle id="0" x="115.28" y="0.00" angle="90.00" type="t" speed="13.80" pos="115.28" lane="gneE0_0" slope="0.00"/>
    </timestep>
    <timestep time="8.10">
        <vehicle id="0" x="116.67" y="0.00" angle="90.00" type="t" speed="13.81" pos="116.67" lane="gneE0_0" slope="0.00"/>
    </timestep>
    <timestep time="8.20">
        <vehicle id="0" x="118.05" y="0.00" angle="90.00" type="t" speed="13.83" pos="118.05" lane="gneE0_0" slope="0.00"/>
    </timestep>
    <timestep time="8.30">
        <vehicle id="0" x="119.42" y="0.00" angle="90.00" type="t" speed="13.71" pos="119.42" lane="gneE0_0" slope="0.00"/>
    </timestep>
    <timestep time="8.40">
        <vehicle id="0" x="120.80" y="0.00" angle="90.00" type="t" speed="13.78" pos="120.80" lane="gneE0_0" slope="0.00"/>
    </timestep>
    <timestep time="8.50">
        <vehicle id="0" x="122.17" y="0.00" angle="90.00" type="t" speed="13.73" pos="122.17" lane="gneE0_0" slope="0.00"/>
    </timestep>
    <timestep time="8.60">
        <vehicle id="0" x="123.55" y="0.00" angle="90.00" type="t" speed="13.79" pos="123.55" lane="gneE0_0" slope="0.00"/>
    </timestep>
    <timestep time="8.70">
        <vehicle id="0" x="124.93" y="0.00" angle="90.00" type="t" speed="13.76" pos="124.93" lane="gneE0_0" slope="0.00"/>
    </timestep>
    <timestep time="8.80">
        <vehicle id="0" x="126.29" y="0.00" angle="90.00" type="t" speed="13.68" pos="126.29" lane="gneE0_0" slope="0.00"/>
    </timestep>
    <timestep time="8.90">
        <vehicle id="0" x="127.67" y="0.00" angle="90.00" type="t" speed="13.74" pos="127.67" lane="gneE0_0" slope="0.00"/>
    </timestep>
    <timestep time="9.00">
        <vehicle id="0" x="129.05" y="0.00" angle="90.00" type="t" speed="13.78" pos="129.05" lane="gneE0_0" slope="0.00"/>
    </timestep>
    <timestep time="9.10">
        <vehicle id="0" x="130.43" y="0.00" angle="90.00" type="t" speed="13.80" pos="130.43" lane="gneE0_0" slope="0.00"/>
    </timestep>
    <timestep time="9.20">
        <vehicle id="0" x="131.79" y="0.00" angle="90.00" type="t" speed="13.64" pos="131.79" lane="gneE0_0" slope="0.00"/>
    </timestep>
    <timestep time="9.30">
        <vehicle id="0" x="133.18" y="0.00" angle="90.00" type="t" speed="13.88" pos="133.18" lane="gneE0_0" slope="0.00"/>
    </timestep>
    <timestep time="9.40">
        <vehicle id="0" x="134.56" y="0.00" angle="90.00" type="t" speed="13.81" pos="134.56" lane="gneE0_0" slope="0.00"/>
    </timestep>
    <timestep time="9.50">
        <vehicle id="0" x="135.94" y="0.00" angle="90.00" type="t" speed="13.86" pos="135.94" lane="gneE0_0" slope="0.00"/>
    </timestep>
    <timestep time="9.60">
        <vehicle id="0" x="137.31" y="0.00" angle="90.00" type="t" speed="13.66" pos="137.31" lane="gneE0_0" slope="0.00"/>
    </timestep>
    <timestep time="9.70">
        <vehicle id="0" x="138.68" y="0.00" angle="90.00" type="t" speed="13.73" pos="138.68" lane="gneE0_0" slope="0.00"/>
    </timestep>
    <timestep time="9.80">
        <vehicle id="0" x="140.05" y="0.00" angle="90.00" type="t" speed="13.65" pos="140.05" lane="gneE0_0" slope="0.00"/>
    </timestep>
    <timestep time="9.90">
        <vehicle id="0" x="141.42" y="0.00" angle="90.00" type="t" speed="13.76" pos="141.42" lane="gneE0_0" slope="0.00"/>
    </timestep>
    <timestep time="10.00">
        <vehicle id="0" x="142.80" y="0.00" angle="90.00" type="t" speed="13.78" pos="142.80" lane="gneE0_0" slope="0.00"/>
    </timestep>
    <timestep time="10.10">
        <vehicle id="0" x="144.17" y="0.00" angle="90.00" type="t" speed="13.71" pos="144.17" lane="gneE0_0" slope="0.00"/>
    </timestep>
    <timestep time="10.20">
        <vehicle id="0" x="145.55" y="0.00" angle="90.00" type="t" speed="13.77" pos="145.55" lane="gneE0_0" slope="0.00"/>
    </timestep>
    <timestep time="10.30">
        <vehicle id="0" x="146.92" y="0.00" angle="90.00" type="t" speed="13.66" pos="146.92" lane="gneE0_0" slope="0.00"/>
    </timestep>
    <timestep time="10.40">
        <vehicle id="0" x="148.29" y="0.00" angle="90.00" type="t" speed="13.74" pos="148.29" lane="gneE0_0" slope="0.00"/>
    </timestep>
    <timestep time="10.50">
        <vehicle id="0" x="149.65" y="0.00" angle="90.00" type="t" speed="13.64" pos="149.65" lane="gneE0_0" slope="0.00"/>
    </timestep>
    <timestep time="10.60">
        <vehicle id="0" x="151.04" y="0.00" angle="90.00" type="t" speed="13.81" pos="151.04" lane="gneE0_0" slope="0.00"/>
    </timestep>
    <timestep time="10.70">
        <vehicle id="0" x="152.41" y="0.00" angle="90.00" type="t" speed="13.78" pos="152.41" lane="gneE0_0" slope="0.00"/>
    </timestep>
    <timestep time="10.80">
        <vehicle id="0" x="153.79" y="0.00" angle="90.00" type="t" speed="13.80" pos="153.79" lane="gneE0_0" slope="0.00"/>
    </timestep>
    <timestep time="10.90">
        <vehicle id="0" x="155.17" y="0.00" angle="90.00" type="t" speed="13.71" pos="155.17" lane="gneE0_0" slope="0.00"/>
    </timestep>
    <timestep time="11.00">
        <vehicle id="0" x="156.55" y="0.00" angle="90.00" type="t" speed="13.86" pos="156.55" lane="gneE0_0" slope="0.00"/>
    </timestep>
    <timestep time="11.10">
        <vehicle id="0" x="157.93" y="0.00" angle="90.00" type="t" speed="13.77" pos="157.93" lane="gneE0_0" slope="0.00"/>
    </timestep>
    <timestep time="11.20">
        <vehicle id="0" x="159.30" y="0.00" angle="90.00" type="t" speed="13.72" pos="159.30" lane="gneE0_0" slope="0.00"/>
    </timestep>
    <timestep time="11.30">
        <vehicle id="0" x="160.67" y="0.00" angle="90.00" type="t" speed="13.69" pos="160.67" lane="gneE0_0" slope="0.00"/>
    </timestep>
    <timestep time="11.40">
        <vehicle id="0" x="162.05" y="0.00" angle="90.00" type="t" speed="13.82" pos="162.05" lane="gneE0_0" slope="0.00"/>
    </timestep>
    <timestep time="11.50">
        <vehicle id="0" x="163.42" y="0.00" angle="90.00" type="t" speed="13.70" pos="163.42" lane="gneE0_0" slope="0.00"/>
    </timestep>
    <timestep time="11.60">
        <vehicle id="0" x="164.81" y="0.00" angle="90.00" type="t" speed="13.86" pos="164.81" lane="gneE0_0" slope="0.00"/>
    </timestep>
    <timestep time="11.70">
        <vehicle id="0" x="166.18" y="0.00" angle="90.00" type="t" speed="13.70" pos="166.18" lane="gneE0_0" slope="0.00"/>
    </timestep>
    <timestep time="11.80">
        <vehicle id="0" x="167.56" y="0.00" angle="90.00" type="t" speed="13.85" pos="167.56" lane="gneE0_0" slope="0.00"/>
    </timestep>
    <timestep time="11.90">
        <vehicle id="0" x="168.93" y="0.00" angle="90.00" type="t" speed="13.66" pos="168.93" lane="gneE0_0" slope="0.00"/>
    </timestep>
    <timestep time="12.00">
        <vehicle id="0" x="170.31" y="0.00" angle="90.00" type="t" speed="13.79" pos="170.31" lane="gneE0_0" slope="0.00"/>
    </timestep>
    <timestep time="12.10">
        <vehicle id="0" x="171.68" y="0.00" angle="90.00" type="t" speed="13.77" pos="171.68" lane="gneE0_0" slope="0.00"/>
    </timestep>
    <timestep time="12.20">
        <vehicle id="0" x="173.07" y="0.00" angle="90.00" type="t" speed="13.88" pos="173.07" lane="gneE0_0" slope="0.00"/>
    </timestep>
    <timestep time="12.30">
        <vehicle id="0" x="174.45" y="0.00" angle="90.00" type="t" speed="13.79" pos="174.45" lane="gneE0_0" slope="0.00"/>
    </timestep>
    <timestep time="12.40">
        <vehicle id="0" x="175.82" y="0.00" angle="90.00" type="t" speed="13.71" pos="175.82" lane="gneE0_0" slope="0.00"/>
    </timestep>
    <timestep time="12.50">
        <vehicle id="0" x="177.19" y="0.00" angle="90.00" type="t" speed="13.64" pos="177.19" lane="gneE0_0" slope="0.00"/>
    </timestep>
    <timestep time="12.60">
        <vehicle id="0" x="178.55" y="0.00" angle="90.00" type="t" speed="13.67" pos="178.55" lane="gneE0_0" slope="0.00"/>
    </timestep>
    <timestep time="12.70">
        <vehicle id="0" x="179.94" y="0.00" angle="90.00" type="t" speed="13.85" pos="179.94" lane="gneE0_0" slope="0.00"/>
    </timestep>
    <timestep time="12.80">
        <vehicle id="0" x="181.30" y="0.00" angle="90.00" type="t" speed="13.65" pos="181.30" lane="gneE0_0" slope="0.00"/>
    </timestep>
    <timestep time="12.90">
        <vehicle id="0" x="182.68" y="0.00" angle="90.00" type="t" speed="13.80" pos="182.68" lane="gneE0_0" slope="0.00"/>
    </timestep>
    <timestep time="13.00">
        <vehicle id="0" x="184.06" y="0.00" angle="90.00" type="t" speed="13.72" pos="184.06" lane="gneE0_0" slope="0.00"/>
    </timestep>
    <timestep time="13.10">
        <vehicle id="0" x="185.43" y="0.00" angle="90.00" type="t" speed="13.78" pos="185.43" lane="gneE0_0" slope="0.00"/>
    </timestep>
    <timestep time="13.20">
        <vehicle id="0" x="186.81" y="0.00" angle="90.00" type="t" speed="13.74" pos="186.81" lane="gneE0_0" slope="0.00"/>
    </timestep>
    <timestep time="13.30">
        <vehicle id="0" x="188.19" y="0.00" angle="90.00" type="t" speed="13.82" pos="188.19" lane="gneE0_0" slope="0.00"/>
    </timestep>
    <timestep time="13.40">
        <vehicle id="0" x="189.57" y="0.00" angle="90.00" type="t" speed="13.79" pos="189.57" lane="gneE0_0" slope="0.00"/>
    </timestep>
    <timestep time="13.50">
        <vehicle id="0" x="190.94" y="0.00" angle="90.00" type="t" speed="13.71" pos="190.94" lane="gneE0_0" slope="0.00"/>
    </timestep>
    <timestep time="13.60">
        <vehicle id="0" x="192.31" y="0.00" angle="90.00" type="t" speed="13.74" pos="192.31" lane="gneE0_0" slope="0.00"/>
    </timestep>
    <timestep time="13.70">
        <vehicle id="0" x="193.69" y="0.00" angle="90.00" type="t" speed="13.74" pos="193.69" lane="gneE0_0" slope="0.00"/>
    </timestep>
    <timestep time="13.80">
        <vehicle id="0" x="195.07" y="0.00" angle="90.00" type="t" speed="13.86" pos="195.07" lane="gneE0_0" slope="0.00"/>
    </timestep>
    <timestep time="13.90">
        <vehicle id="0" x="196.44" y="0.00" angle="90.00" type="t" speed="13.67" pos="196.44" lane="gneE0_0" slope="0.00"/>
    </timestep>
    <timestep time="14.00">
        <vehicle id="0" x="197.81" y="0.00" angle="90.00" type="t" speed="13.72" pos="197.81" lane="gneE0_0" slope="0.00"/>
    </timestep>
    <timestep time="14.10">
        <vehicle id="0" x="199.18" y="0.00" angle="90.00" type="t" speed="13.68" pos="199.18" lane="gneE0_0" slope="0.00"/>
    </timestep>
    <timestep time="14.20">
        <vehicle id="0" x="200.54" y="0.00" angle="90.00" type="t" speed="13.64" pos="200.54" lane="gneE0_0" slope="0.00"/>
    </timestep>
    <timestep time="14.30">
        <vehicle id="0" x="201.92" y="0.00" angle="90.00" type="t" speed="13.75" pos="201.92" lane="gneE0_0" slope="0.00"/>
    </timestep>
    <timestep time="14.40">
        <vehicle id="0" x="203.31" y="0.00" angle="90.00" type="t" speed="13.89" pos="203.31" lane="gneE0_0" slope="0.00"/>
    </timestep>
    <timestep time="14.50">
        <vehicle id="0" x="204.67" y="0.00" angle="90.00" type="t" speed="13.63" pos="204.67" lane="gneE0_0" slope="0.00"/>
    </timestep>
    <timestep time="14.60">
        <vehicle id="0" x="206.04" y="0.00" angle="90.00" type="t" speed="13.66" pos="206.04" lane="gneE0_0" slope="0.00"/>
    </timestep>
    <timestep time="14.70">
        <vehicle id="0" x="207.41" y="0.00" angle="90.00" type="t" speed="13.76" pos="207.41" lane="gneE0_0" slope="0.00"/>
    </timestep>
    <timestep time="14.80">
        <vehicle id="0" x="208.78" y="0.00" angle="90.00" type="t" speed="13.66" pos="208.78" lane="gneE0_0" slope="0.00"/>
    </timestep>
    <timestep time="14.90">
        <vehicle id="0" x="210.16" y="0.00" angle="90.00" type="t" speed="13.85" pos="210.16" lane="gneE0_0" slope="0.00"/>
    </timestep>
    <timestep time="15.00">
        <vehicle id="0" x="211.54" y="0.00" angle="90.00" type="t" speed="13.80" pos="211.54" lane="gneE0_0" slope="0.00"/>
    </timestep>
    <timestep time="15.10">
        <vehicle id="0" x="212.91" y="0.00" angle="90.00" type="t" speed="13.68" pos="212.91" lane="gneE0_0" slope="0.00"/>
    </timestep>
    <timestep time="15.20">
        <vehicle id="0" x="214.29" y="0.00" angle="90.00" type="t" speed="13.77" pos="214.29" lane="gneE0_0" slope="0.00"/>
    </timestep>
    <timestep time="15.30">
        <vehicle id="0" x="215.67" y="0.00" angle="90.00" type="t" speed="13.80" pos="215.67" lane="gneE0_0" slope="0.00"/>
    </timestep>
    <timestep time="15.40">
        <vehicle id="0" x="217.06" y="0.00" angle="90.00" type="t" speed="13.89" pos="217.06" lane="gneE0_0" slope="0.00"/>
    </timestep>
    <timestep time="15.50">
        <vehicle id="0" x="218.43" y="0.00" angle="90.00" type="t" speed="13.72" pos="218.43" lane="gneE0_0" slope="0.00"/>
    </timestep>
    <timestep time="15.60">
        <vehicle id="0" x="219.80" y="0.00" angle="90.00" type="t" speed="13.65" pos="219.80" lane="gneE0_0" slope="0.00"/>
    </timestep>
    <timestep time="15.70">
        <vehicle id="0" x="221.18" y="0.00" angle="90.00" type="t" speed="13.89" pos="221.18" lane="gneE0_0" slope="0.00"/>
    </timestep>
    <timestep time="15.80">
        <vehicle id="0" x="222.56" y="0.00" angle="90.00" type="t" speed="13.76" pos="222.56" lane="gneE0_0" slope="0.00"/>
    </timestep>
    <timestep time="15.90">
        <vehicle id="0" x="223.93" y="0.00" angle="90.00" type="t" speed="13.65" pos="223.93" lane="gneE0_0" slope="0.00"/>
    </timestep>
    <timestep time="16.00">
        <vehicle id="0" x="225.30" y="0.00" angle="90.00" type="t" speed="13.78" pos="225.30" lane="gneE0_0" slope="0.00"/>
    </timestep>
    <timestep time="16.10">
        <vehicle id="0" x="226.69" y="0.00" angle="90.00" type="t" speed="13.86" pos="226.69" lane="gneE0_0" slope="0.00"/>
    </timestep>
    <timestep time="16.20">
        <vehicle id="0" x="228.06" y="0.00" angle="90.00" type="t" speed="13.67" pos="228.06" lane="gneE0_0" slope="0.00"/>
    </timestep>
    <timestep time="16.30">
        <vehicle id="0" x="229.42" y="0.00" angle="90.00" type="t" speed="13.68" pos="229.42" lane="gneE0_0" slope="0.00"/>
    </timestep>
    <timestep time="16.40">
        <vehicle id="0" x="230.80" y="0.00" angle="90.00" type="t" speed="13.79" pos="230.80" lane="gneE0_0" slope="0.00"/>
    </timestep>
    <timestep time="16.50">
        <vehicle id="0" x="232.17" y="0.00" angle="90.00" type="t" speed="13.63" pos="232.17" lane="gneE0_0" slope="0.00"/>
    </timestep>
    <timestep time="16.60">
        <vehicle id="0" x="233.54" y="0.00" angle="90.00" type="t" speed="13.76" pos="233.54" lane="gneE0_0" slope="0.00"/>
    </timestep>
    <timestep time="16.70">
        <vehicle id="0" x="234.91" y="0.00" angle="90.00" type="t" speed="13.65" pos="234.91" lane="gneE0_0" slope="0.00"/>
    </timestep>
    <timestep time="16.80">
        <vehicle id="0" x="236.28" y="0.00" angle="90.00" type="t" speed="13.69" pos="236.28" lane="gneE0_0" slope="0.00"/>
    </timestep>
    <timestep time="16.90">
        <vehicle id="0" x="237.65" y="0.00" angle="90.00" type="t" speed="13.77" pos="237.65" lane="gneE0_0" slope="0.00"/>
    </timestep>