<?xml version="1.0" encoding="UTF-8"?>

<!-- generated on 2025-11-02T19:25:07.358956+01:00 by Eclipse SUMO sumo v1_24_0+1713-b6716327859
This data file and the accompanying materials
are made available under the terms of the Eclipse Public License v2.0
which accompanies this distribution, and is available at
http://www.eclipse.org/legal/epl-v20.html
This file may also be made available under the following Secondary
Licenses when the conditions for such availability set forth in the Eclipse
Public License 2.0 are satisfied: GNU General Public License, version 2
or later which is available at
https://www.gnu.org/licenses/old-licenses/gpl-2.0-standalone.html
SPDX-License-Identifier: EPL-2.0 OR GPL-2.0-or-later
<sumoConfiguration xmlns:xsi="http://www.w3.org/2001/XMLSchema-instance" xsi:noNamespaceSchemaLocation="http://sumo.dlr.de/xsd/sumoConfiguration.xsd">

    <input>
        <net-file value="net.net.xml"/>
        <route-files value="input_routes.rou.xml"/>
    </input>

    <output>
        <write-license value="true"/>
        <edgedata-output value="aggregated.xml"/>
    </output>

    <processing>
        <default.speeddev value="0"/>
    </processing>

    <report>
        <xml-validation value="never"/>
        <duration-log.disable value="true"/>
        <duration-log.statistics value="true"/>
        <no-step-log value="true"/>
    </report>

    <mesoscopic>
        <mesosim value="true"/>
        <meso-junction-control value="true"/>
    </mesoscopic>

</sumoConfiguration>
-->

<meandata xmlns:xsi="http://www.w3.org/2001/XMLSchema-instance" xsi:noNamespaceSchemaLocation="http://sumo.dlr.de/xsd/meandata_file.xsd">
    <interval begin="0.00" end="323.00" id="DEFAULT_EDGEDATA">
        <edge id="A0right0" sampledSeconds="601.90" traveltime="6.02" overlapTraveltime="6.38" density="22.29" overlapDensity="22.29" laneDensity="22.29" occupancy="11.15" waitingTime="0.00" timeLoss="0.03" speed="13.89" speedRelative="1.00" departed="0" arrived="100" entered="100" left="0" laneChangedFrom="0" laneChangedTo="0"/>
        <edge id="bottom0A0" sampledSeconds="1722.14" traveltime="34.44" overlapTraveltime="36.50" density="63.78" overlapDensity="63.78" laneDensity="21.26" occupancy="10.63" waitingTime="88.94" timeLoss="1421.20" speed="2.43" speedRelative="0.17" departed="50" arrived="0" entered="0" left="50" laneChangedFrom="0" laneChangedTo="0"/>
        <edge id="left0A0" sampledSeconds="2764.04" traveltime="55.28" overlapTraveltime="58.59" density="102.36" overlapDensity="102.36" laneDensity="34.12" occupancy="17.06" waitingTime="201.01" timeLoss="2463.11" speed="1.51" speedRelative="0.11" departed="50" arrived="0" entered="0" left="50" laneChangedFrom="0" laneChangedTo="0"/>
    </interval>
</meandata>
