<?xml version="1.0" encoding="UTF-8"?>

<!-- generated on 2025-11-02T19:54:09.828841+01:00 by Eclipse SUMO sumo v1_24_0+1715-28a54f8871d
This data file and the accompanying materials
are made available under the terms of the Eclipse Public License v2.0
which accompanies this distribution, and is available at
http://www.eclipse.org/legal/epl-v20.html
This file may also be made available under the following Secondary
Licenses when the conditions for such availability set forth in the Eclipse
Public License 2.0 are satisfied: GNU General Public License, version 2
or later which is available at
https://www.gnu.org/licenses/old-licenses/gpl-2.0-standalone.html
SPDX-License-Identifier: EPL-2.0 OR GPL-2.0-or-later
<sumoConfiguration xmlns:xsi="http://www.w3.org/2001/XMLSchema-instance" xsi:noNamespaceSchemaLocation="http://sumo.dlr.de/xsd/sumoConfiguration.xsd">

    <input>
        <net-file value="net.net.xml"/>
        <route-files value="input_routes.rou.xml"/>
    </input>

    <output>
        <write-license value="true"/>
        <edgedata-output value="aggregated.xml"/>
    </output>

    <processing>
        <default.speeddev value="0"/>
    </processing>

    <report>
        <xml-validation value="never"/>
        <duration-log.disable value="true"/>
        <duration-log.statistics value="true"/>
        <no-step-log value="true"/>
    </report>

</sumoConfiguration>
-->

<meandata xmlns:xsi="http://www.w3.org/2001/XMLSchema-instance" xsi:noNamespaceSchemaLocation="http://sumo.dlr.de/xsd/meandata_file.xsd">
    <interval begin="0.00" end="328.00" id="DEFAULT_EDGEDATA">
        <edge id="A0right0" sampledSeconds="714.56" traveltime="6.84" overlapTraveltime="7.22" density="24.93" overlapDensity="26.06" laneDensity="24.93" occupancy="12.25" waitingTime="0.00" timeLoss="83.29" speed="12.27" speedRelative="0.88" departed="0" arrived="100" entered="100" left="0" laneChangedFrom="0" laneChangedTo="0" flow="1101.24"/>
        <edge id="bottom0A0" sampledSeconds="2456.00" traveltime="51.04" overlapTraveltime="52.12" density="87.39" overlapDensity="89.57" laneDensity="29.13" occupancy="14.75" waitingTime="1207.00" timeLoss="2142.18" speed="1.70" speedRelative="0.12" departed="50" arrived="0" entered="0" left="50" laneChangedFrom="0" laneChangedTo="0" flow="534.78"/>
        <edge id="left0A0" sampledSeconds="2117.40" traveltime="44.50" overlapTraveltime="44.93" density="76.20" overlapDensity="77.22" laneDensity="25.40" occupancy="12.79" waitingTime="1446.00" timeLoss="1816.82" speed="1.97" speedRelative="0.14" departed="50" arrived="0" entered="0" left="50" laneChangedFrom="0" laneChangedTo="0" flow="540.90"/>
    </interval>
</meandata>
