<?xml version="1.0"?>

<!-- generated on 11/03/08 13:38:37 by SUMO sumo Version dev-SVN-r6273
<configuration>

   <input>
      <net-file>net.net.xml</net-file>
      <route-files>input_routes.rou.xml</route-files>
   </input>

   <output>
      <netstate-dump>rawdump.xml</netstate-dump>
   </output>

   <processing>
      <no-duration-log>true</no-duration-log>
      <no-step-log>true</no-step-log>
   </processing>

</configuration>
-->

<sumo-netstate>
   <timestep time="0">
      <edge id="beg">
         <lane id="beg_0">
            <vehicle id="1" pos="0.00" speed="0.00"/>
         </lane>
         <lane id="beg_1"/>
         <lane id="beg_2"/>
      </edge>
   </timestep>
   <timestep time="1">
      <edge id="beg">
         <lane id="beg_0">
            <vehicle id="1" pos="2.60" speed="2.60"/>
         </lane>
         <lane id="beg_1"/>
         <lane id="beg_2"/>
      </edge>
   </timestep>
   <timestep time="2">
      <edge id="beg">
         <lane id="beg_0">
            <vehicle id="1" pos="7.70" speed="5.10"/>
         </lane>
         <lane id="beg_1"/>
         <lane id="beg_2"/>
      </edge>
   </timestep>
   <timestep time="3">
      <edge id="beg">
         <lane id="beg_0">
            <vehicle id="1" pos="15.22" speed="7.51"/>
         </lane>
         <lane id="beg_1"/>
         <lane id="beg_2"/>
      </edge>
   </timestep>
   <timestep time="4">
      <edge id="beg">
         <lane id="beg_0">
            <vehicle id="1" pos="25.05" speed="9.83"/>
         </lane>
         <lane id="beg_1"/>
         <lane id="beg_2"/>
      </edge>
   </timestep>
   <timestep time="5">
      <edge id="beg">
         <lane id="beg_0">
            <vehicle id="1" pos="37.12" speed="12.07"/>
         </lane>
         <lane id="beg_1"/>
         <lane id="beg_2"/>
      </edge>
   </timestep>
   <timestep time="6">
      <edge id="beg">
         <lane id="beg_0">
            <vehicle id="1" pos="51.34" speed="14.22"/>
         </lane>
         <lane id="beg_1"/>
         <lane id="beg_2"/>
      </edge>
   </timestep>
   <timestep time="7">
      <edge id="beg">
         <lane id="beg_0">
            <vehicle id="1" pos="67.64" speed="16.29"/>
         </lane>
         <lane id="beg_1"/>
         <lane id="beg_2"/>
      </edge>
   </timestep>
   <timestep time="8">
      <edge id="beg">
         <lane id="beg_0">
            <vehicle id="1" pos="85.92" speed="18.29"/>
         </lane>
         <lane id="beg_1"/>
         <lane id="beg_2"/>
      </edge>
   </timestep>
   <timestep time="9">
      <edge id="beg">
         <lane id="beg_0">
            <vehicle id="1" pos="106.13" speed="20.21"/>
         </lane>
         <lane id="beg_1"/>
         <lane id="beg_2"/>
      </edge>
   </timestep>
   <timestep time="10">
      <edge id="beg">
         <lane id="beg_0">
            <vehicle id="1" pos="128.19" speed="22.06"/>
         </lane>
         <lane id="beg_1"/>
         <lane id="beg_2"/>
      </edge>
   </timestep>
   <timestep time="11">
      <edge id="beg">
         <lane id="beg_0">
            <vehicle id="1" pos="152.03" speed="23.84"/>
         </lane>
         <lane id="beg_1"/>
         <lane id="beg_2"/>
      </edge>
   </timestep>
   <timestep time="12">
      <edge id="beg">
         <lane id="beg_0">
            <vehicle id="1" pos="177.58" speed="25.55"/>
         </lane>
         <lane id="beg_1"/>
         <lane id="beg_2"/>
      </edge>
   </timestep>
   <timestep time="13">
      <edge id="beg">
         <lane id="beg_0">
            <vehicle id="1" pos="204.79" speed="27.20"/>
         </lane>
         <lane id="beg_1"/>
         <lane id="beg_2"/>
      </edge>
   </timestep>
   <timestep time="14">
      <edge id="beg">
         <lane id="beg_0">
            <vehicle id="1" pos="232.59" speed="27.80"/>
         </lane>
         <lane id="beg_1"/>
         <lane id="beg_2"/>
      </edge>
   </timestep>
   <timestep time="15">
      <edge id="beg">
         <lane id="beg_0">
            <vehicle id="1" pos="260.39" speed="27.80"/>
         </lane>
         <lane id="beg_1"/>
         <lane id="beg_2"/>
      </edge>
   </timestep>
   <timestep time="16">
      <edge id="beg">
         <lane id="beg_0">
            <vehicle id="1" pos="288.19" speed="27.80"/>
         </lane>
         <lane id="beg_1"/>
         <lane id="beg_2"/>
      </edge>
   </timestep>
   <timestep time="17">
      <edge id="beg">
         <lane id="beg_0">
            <vehicle id="1" pos="315.99" speed="27.80"/>
         </lane>
         <lane id="beg_1"/>
         <lane id="beg_2"/>
      </edge>
   </timestep>
   <timestep time="18">
      <edge id="beg">
         <lane id="beg_0">
            <vehicle id="1" pos="343.79" speed="27.80"/>
         </lane>
         <lane id="beg_1"/>
         <lane id="beg_2"/>
      </edge>
   </timestep>
   <timestep time="19">
      <edge id="beg">
         <lane id="beg_0">
            <vehicle id="1" pos="371.59" speed="27.80"/>
         </lane>
         <lane id="beg_1"/>
         <lane id="beg_2"/>
      </edge>
   </timestep>
   <timestep time="20">
      <edge id="beg">
         <lane id="beg_0">
            <vehicle id="1" pos="399.39" speed="27.80"/>
         </lane>
         <lane id="beg_1"/>
         <lane id="beg_2"/>
      </edge>
   </timestep>
   <timestep time="21">
      <edge id="beg">
         <lane id="beg_0">
            <vehicle id="1" pos="427.19" speed="27.80"/>
         </lane>
         <lane id="beg_1"/>
         <lane id="beg_2"/>
      </edge>
   </timestep>
   <timestep time="22">
      <edge id="beg">
         <lane id="beg_0">
            <vehicle id="1" pos="454.99" speed="27.80"/>
         </lane>
         <lane id="beg_1"/>
         <lane id="beg_2"/>
      </edge>
   </timestep>
   <timestep time="23">
      <edge id="beg">
         <lane id="beg_0">
            <vehicle id="1" pos="482.79" speed="27.80"/>
         </lane>
         <lane id="beg_1"/>
         <lane id="beg_2"/>
      </edge>
   </timestep>
   <timestep time="24">
      <edge id="end">
         <lane id="end_0">
            <vehicle id="1" pos="10.59" speed="27.80"/>
         </lane>
         <lane id="end_1"/>
         <lane id="end_2"/>
      </edge>
   </timestep>
   <timestep time="25">
      <edge id="end">
         <lane id="end_0">
            <vehicle id="1" pos="39.95" speed="29.37"/>
         </lane>
         <lane id="end_1"/>
         <lane id="end_2"/>
      </edge>
   </timestep>
   <timestep time="26">
      <edge id="end">
         <lane id="end_0">
            <vehicle id="1" pos="70.83" speed="30.88"/>
         </lane>
         <lane id="end_1"/>
         <lane id="end_2"/>
      </edge>
   </timestep>
   <timestep time="27">
      <edge id="end">
         <lane id="end_0">
            <vehicle id="1" pos="103.16" speed="32.33"/>
         </lane>
         <lane id="end_1"/>
         <lane id="end_2"/>
      </edge>
   </timestep>
   <timestep time="28">
      <edge id="end">
         <lane id="end_0">
            <vehicle id="1" pos="136.89" speed="33.73"/>
         </lane>
         <lane id="end_1"/>
         <lane id="end_2"/>
      </edge>
   </timestep>
   <timestep time="29">
      <edge id="end">
         <lane id="end_0">
            <vehicle id="1" pos="171.96" speed="35.08"/>
         </lane>
         <lane id="end_1"/>
         <lane id="end_2"/>
      </edge>
   </timestep>
   <timestep time="30">
      <edge id="end">
         <lane id="end_0">
            <vehicle id="1" pos="208.34" speed="36.37"/>
         </lane>
         <lane id="end_1"/>
         <lane id="end_2"/>
      </edge>
   </timestep>
   <timestep time="31">
      <edge id="end">
         <lane id="end_0">
            <vehicle id="1" pos="245.96" speed="37.62"/>
         </lane>
         <lane id="end_1"/>
         <lane id="end_2"/>
      </edge>
   </timestep>
   <timestep time="32">
      <edge id="end">
         <lane id="end_0">
            <vehicle id="1" pos="284.79" speed="38.82"/>
         </lane>
         <lane id="end_1"/>
         <lane id="end_2"/>
      </edge>
   </timestep>
   <timestep time="33">
      <edge id="end">
         <lane id="end_0">
            <vehicle id="1" pos="324.53" speed="39.74"/>
         </lane>
         <lane id="end_1"/>
         <lane id="end_2"/>
      </edge>
   </timestep>
   <timestep time="34">
      <edge id="end">
         <lane id="end_0">
            <vehicle id="1" pos="360.02" speed="35.49"/>
         </lane>
         <lane id="end_1"/>
         <lane id="end_2"/>
      </edge>
   </timestep>
   <timestep time="35">
      <edge id="end">
         <lane id="end_0">
            <vehicle id="1" pos="391.30" speed="31.28"/>
         </lane>
         <lane id="end_1"/>
         <lane id="end_2"/>
      </edge>
   </timestep>
   <timestep time="36">
      <edge id="end">
         <lane id="end_0">
            <vehicle id="1" pos="418.40" speed="27.10"/>
         </lane>
         <lane id="end_1"/>
         <lane id="end_2"/>
      </edge>
   </timestep>
   <timestep time="37">
      <edge id="end">
         <lane id="end_0">
            <vehicle id="1" pos="441.37" speed="22.97"/>
         </lane>
         <lane id="end_1"/>
         <lane id="end_2"/>
      </edge>
   </timestep>
   <timestep time="38">
      <edge id="end">
         <lane id="end_0">
            <vehicle id="1" pos="460.28" speed="18.91"/>
         </lane>
         <lane id="end_1"/>
         <lane id="end_2"/>
      </edge>
   </timestep>
   <timestep time="39">
      <edge id="end">
         <lane id="end_0">
            <vehicle id="1" pos="475.21" speed="14.94"/>
         </lane>
         <lane id="end_1"/>
         <lane id="end_2"/>
      </edge>
   </timestep>
   <timestep time="40">
      <edge id="end">
         <lane id="end_0">
            <vehicle id="1" pos="486.31" speed="11.10"/>
         </lane>
         <lane id="end_1"/>
         <lane id="end_2"/>
      </edge>
   </timestep>
   <timestep time="41">
   </timestep>
</sumo-netstate>
