<?xml version="1.0" encoding="UTF-8"?>

<!-- generated on 2024-06-12 07:50:22 by Eclipse SUMO sumo Version v1_20_0+0443-233e48e5c88
-->

<sumoConfiguration xmlns:xsi="http://www.w3.org/2001/XMLSchema-instance" xsi:noNamespaceSchemaLocation="http://sumo.dlr.de/xsd/sumoConfiguration.xsd">

    <input>
        <net-file value="${NETFILENAME}.net.xml"/>
    </input>

    <output>
        <summary-output value="sum${UTC}.xml"/>
        <tripinfo-output value="${PID}.trips.xml"/>
        <collision-output value="~/collision.xml"/>
    </output>

    <report>
        <log value="log${LOCALTIME}.log"/>
        <no-step-log value="true"/>
    </report>

</sumoConfiguration>
