<?xml version="1.0" encoding="UTF-8"?>

<!-- generated on Fri Mar  7 10:25:53 2014 by SUMO sumo Version dev-SVN-r15863
<?xml version="1.0" encoding="UTF-8"?>

<configuration xmlns:xsi="http://www.w3.org/2001/XMLSchema-instance" xsi:noNamespaceSchemaLocation="http://sumo.dlr.de/xsd/sumoConfiguration.xsd">

    <input>
        <net-file value="net.net.xml"/>
        <route-files value="routes.rou.xml"/>
    </input>

    <output>
        <netstate-dump value="netstate_dump.xml"/>
    </output>

    <report>
        <xml-validation value="never"/>
        <no-step-log value="true"/>
    </report>

    <traci_server>
        <remote-port value="8810"/>
    </traci_server>

</configuration>
-->

<netstate xmlns:xsi="http://www.w3.org/2001/XMLSchema-instance" xsi:noNamespaceSchemaLocation="http://sumo.dlr.de/xsd/netstate_file.xsd">
    <timestep time="0.00">
        <edge id="1si">
            <lane id="1si_0"/>
            <lane id="1si_1">
                <vehicle id="veh0" pos="0.00" speed="0.00"/>
            </lane>
            <lane id="1si_2"/>
        </edge>
    </timestep>
    <timestep time="1.00">
        <edge id="1si">
            <lane id="1si_0"/>
            <lane id="1si_1">
                <vehicle id="veh0" pos="0.80" speed="0.80"/>
            </lane>
            <lane id="1si_2"/>
        </edge>
    </timestep>
    <timestep time="2.00">
        <edge id="1si">
            <lane id="1si_0"/>
            <lane id="1si_1">
                <vehicle id="veh0" pos="1.80" speed="1.00"/>
            </lane>
            <lane id="1si_2"/>
        </edge>
    </timestep>
    <timestep time="3.00">
        <edge id="1si">
            <lane id="1si_0"/>
            <lane id="1si_1">
                <vehicle id="veh0" pos="2.80" speed="1.00"/>
            </lane>
            <lane id="1si_2"/>
        </edge>
    </timestep>
    <timestep time="4.00">
        <edge id="1si">
            <lane id="1si_0"/>
            <lane id="1si_1">
                <vehicle id="veh0" pos="3.80" speed="1.00"/>
            </lane>
            <lane id="1si_2"/>
        </edge>
    </timestep>
    <timestep time="5.00">
        <edge id="1si">
            <lane id="1si_0"/>
            <lane id="1si_1">
                <vehicle id="veh0" pos="4.80" speed="1.00"/>
            </lane>
            <lane id="1si_2"/>
        </edge>
    </timestep>
    <timestep time="6.00">
        <edge id="1si">
            <lane id="1si_0">
                <vehicle id="veh0" pos="5.80" speed="1.00"/>
            </lane>
            <lane id="1si_1">
                <vehicle id="veh1" pos="0.00" speed="0.00"/>
            </lane>
            <lane id="1si_2"/>
        </edge>
    </timestep>
    <timestep time="7.00">
        <edge id="1si">
            <lane id="1si_0">
                <vehicle id="veh0" pos="6.80" speed="1.00"/>
            </lane>
            <lane id="1si_1">
                <vehicle id="veh1" pos="0.80" speed="0.80"/>
            </lane>
            <lane id="1si_2"/>
        </edge>
    </timestep>
    <timestep time="8.00">
        <edge id="1si">
            <lane id="1si_0">
                <vehicle id="veh0" pos="7.80" speed="1.00"/>
            </lane>
            <lane id="1si_1">
                <vehicle id="veh1" pos="1.80" speed="1.00"/>
            </lane>
            <lane id="1si_2"/>
        </edge>
    </timestep>
    <timestep time="9.00">
        <edge id="1si">
            <lane id="1si_0">
                <vehicle id="veh0" pos="8.80" speed="1.00"/>
            </lane>
            <lane id="1si_1">
                <vehicle id="veh1" pos="2.80" speed="1.00"/>
            </lane>
            <lane id="1si_2"/>
        </edge>
    </timestep>
    <timestep time="10.00">
        <edge id="1si">
            <lane id="1si_0">
                <vehicle id="veh0" pos="9.80" speed="1.00"/>
            </lane>
            <lane id="1si_1">
                <vehicle id="veh1" pos="3.80" speed="1.00"/>
            </lane>
            <lane id="1si_2"/>
        </edge>
    </timestep>
    <timestep time="11.00">
        <edge id="1si">
            <lane id="1si_0">
                <vehicle id="veh0" pos="10.80" speed="1.00"/>
            </lane>
            <lane id="1si_1">
                <vehicle id="veh1" pos="4.80" speed="1.00"/>
            </lane>
            <lane id="1si_2"/>
        </edge>
    </timestep>
    <timestep time="12.00">
        <edge id="1si">
            <lane id="1si_0">
                <vehicle id="veh0" pos="11.80" speed="1.00"/>
            </lane>
            <lane id="1si_1">
                <vehicle id="veh1" pos="5.80" speed="1.00"/>
            </lane>
            <lane id="1si_2"/>
        </edge>
    </timestep>
    <timestep time="13.00">
        <edge id="1si">
            <lane id="1si_0">
                <vehicle id="veh0" pos="12.80" speed="1.00"/>
            </lane>
            <lane id="1si_1">
                <vehicle id="veh1" pos="6.80" speed="1.00"/>
            </lane>
            <lane id="1si_2"/>
        </edge>
    </timestep>
    <timestep time="14.00">
        <edge id="1si">
            <lane id="1si_0">
                <vehicle id="veh0" pos="13.80" speed="1.00"/>
            </lane>
            <lane id="1si_1">
                <vehicle id="veh1" pos="7.80" speed="1.00"/>
            </lane>
            <lane id="1si_2"/>
        </edge>
    </timestep>
    <timestep time="15.00">
        <edge id="1si">
            <lane id="1si_0">
                <vehicle id="veh0" pos="14.80" speed="1.00"/>
            </lane>
            <lane id="1si_1">
                <vehicle id="veh1" pos="8.80" speed="1.00"/>
            </lane>
            <lane id="1si_2"/>
        </edge>
    </timestep>
    <timestep time="16.00">
        <edge id="1si">
            <lane id="1si_0">
                <vehicle id="veh0" pos="15.80" speed="1.00"/>
            </lane>
            <lane id="1si_1">
                <vehicle id="veh1" pos="9.80" speed="1.00"/>
            </lane>
            <lane id="1si_2"/>
        </edge>
    </timestep>
    <timestep time="17.00">
        <edge id="1si">
            <lane id="1si_0">
                <vehicle id="veh0" pos="16.80" speed="1.00"/>
            </lane>
            <lane id="1si_1">
                <vehicle id="veh1" pos="10.80" speed="1.00"/>
            </lane>
            <lane id="1si_2"/>
        </edge>
    </timestep>
    <timestep time="18.00">
        <edge id="1si">
            <lane id="1si_0">
                <vehicle id="veh0" pos="17.80" speed="1.00"/>
            </lane>
            <lane id="1si_1">
                <vehicle id="veh1" pos="11.80" speed="1.00"/>
            </lane>
            <lane id="1si_2"/>
        </edge>
    </timestep>
    <timestep time="19.00">
        <edge id="1si">
            <lane id="1si_0">
                <vehicle id="veh0" pos="18.80" speed="1.00"/>
            </lane>
            <lane id="1si_1">
                <vehicle id="veh1" pos="12.80" speed="1.00"/>
            </lane>
            <lane id="1si_2"/>
        </edge>
    </timestep>
    <timestep time="20.00">
        <edge id="1si">
            <lane id="1si_0">
                <vehicle id="veh0" pos="19.80" speed="1.00"/>
            </lane>
            <lane id="1si_1">
                <vehicle id="veh1" pos="13.80" speed="1.00"/>
            </lane>
            <lane id="1si_2"/>
        </edge>
    </timestep>
    <timestep time="21.00">
        <edge id="1si">
            <lane id="1si_0">
                <vehicle id="veh0" pos="20.80" speed="1.00"/>
            </lane>
            <lane id="1si_1">
                <vehicle id="veh1" pos="14.80" speed="1.00"/>
            </lane>
            <lane id="1si_2"/>
        </edge>
    </timestep>
    <timestep time="22.00">
        <edge id="1si">
            <lane id="1si_0">
                <vehicle id="veh0" pos="21.80" speed="1.00"/>
            </lane>
            <lane id="1si_1">
                <vehicle id="veh1" pos="15.80" speed="1.00"/>
            </lane>
            <lane id="1si_2"/>
        </edge>
    </timestep>
    <timestep time="23.00">
        <edge id="1si">
            <lane id="1si_0">
                <vehicle id="veh0" pos="22.80" speed="1.00"/>
            </lane>
            <lane id="1si_1">
                <vehicle id="veh1" pos="16.80" speed="1.00"/>
            </lane>
            <lane id="1si_2"/>
        </edge>
    </timestep>
    <timestep time="24.00">
        <edge id="1si">
            <lane id="1si_0">
                <vehicle id="veh0" pos="23.80" speed="1.00"/>
            </lane>
            <lane id="1si_1">
                <vehicle id="veh1" pos="17.80" speed="1.00"/>
            </lane>
            <lane id="1si_2"/>
        </edge>
    </timestep>
    <timestep time="25.00">
        <edge id="1si">
            <lane id="1si_0">
                <vehicle id="veh0" pos="24.80" speed="1.00"/>
            </lane>
            <lane id="1si_1">
                <vehicle id="veh1" pos="18.80" speed="1.00"/>
            </lane>
            <lane id="1si_2"/>
        </edge>
    </timestep>
    <timestep time="26.00">
        <edge id="1si">
            <lane id="1si_0">
                <vehicle id="veh0" pos="25.80" speed="1.00"/>
            </lane>
            <lane id="1si_1">
                <vehicle id="veh1" pos="19.80" speed="1.00"/>
            </lane>
            <lane id="1si_2"/>
        </edge>
    </timestep>
    <timestep time="27.00">
        <edge id="1si">
            <lane id="1si_0">
                <vehicle id="veh0" pos="26.80" speed="1.00"/>
            </lane>
            <lane id="1si_1">
                <vehicle id="veh1" pos="20.80" speed="1.00"/>
            </lane>
            <lane id="1si_2"/>
        </edge>
    </timestep>
    <timestep time="28.00">
        <edge id="1si">
            <lane id="1si_0">
                <vehicle id="veh0" pos="27.80" speed="1.00"/>
            </lane>
            <lane id="1si_1">
                <vehicle id="veh1" pos="21.80" speed="1.00"/>
            </lane>
            <lane id="1si_2"/>
        </edge>
    </timestep>
    <timestep time="29.00">
        <edge id="1si">
            <lane id="1si_0">
                <vehicle id="veh0" pos="28.80" speed="1.00"/>
            </lane>
            <lane id="1si_1">
                <vehicle id="veh1" pos="22.80" speed="1.00"/>
            </lane>
            <lane id="1si_2"/>
        </edge>
    </timestep>
    <timestep time="30.00">
        <edge id="1si">
            <lane id="1si_0">
                <vehicle id="veh0" pos="29.80" speed="1.00"/>
            </lane>
            <lane id="1si_1">
                <vehicle id="veh1" pos="23.80" speed="1.00"/>
            </lane>
            <lane id="1si_2"/>
        </edge>
    </timestep>
    <timestep time="31.00">
        <edge id="1si">
            <lane id="1si_0">
                <vehicle id="veh0" pos="30.80" speed="1.00"/>
            </lane>
            <lane id="1si_1">
                <vehicle id="veh1" pos="24.80" speed="1.00"/>
            </lane>
            <lane id="1si_2"/>
        </edge>
    </timestep>
    <timestep time="32.00">
        <edge id="1si">
            <lane id="1si_0">
                <vehicle id="veh0" pos="31.80" speed="1.00"/>
            </lane>
            <lane id="1si_1">
                <vehicle id="veh1" pos="25.80" speed="1.00"/>
            </lane>
            <lane id="1si_2"/>
        </edge>
    </timestep>
    <timestep time="33.00">
        <edge id="1si">
            <lane id="1si_0">
                <vehicle id="veh0" pos="32.80" speed="1.00"/>
            </lane>
            <lane id="1si_1">
                <vehicle id="veh1" pos="26.80" speed="1.00"/>
            </lane>
            <lane id="1si_2"/>
        </edge>
    </timestep>
    <timestep time="34.00">
        <edge id="1si">
            <lane id="1si_0">
                <vehicle id="veh0" pos="33.80" speed="1.00"/>
            </lane>
            <lane id="1si_1">
                <vehicle id="veh1" pos="27.80" speed="1.00"/>
            </lane>
            <lane id="1si_2"/>
        </edge>
    </timestep>
    <timestep time="35.00">
        <edge id="1si">
            <lane id="1si_0">
                <vehicle id="veh0" pos="34.80" speed="1.00"/>
            </lane>
            <lane id="1si_1">
                <vehicle id="veh1" pos="28.80" speed="1.00"/>
            </lane>
            <lane id="1si_2"/>
        </edge>
    </timestep>
    <timestep time="36.00">
        <edge id="1si">
            <lane id="1si_0">
                <vehicle id="veh0" pos="35.80" speed="1.00"/>
            </lane>
            <lane id="1si_1">
                <vehicle id="veh1" pos="29.80" speed="1.00"/>
            </lane>
            <lane id="1si_2"/>
        </edge>
    </timestep>
    <timestep time="37.00">
        <edge id="1si">
            <lane id="1si_0">
                <vehicle id="veh0" pos="36.80" speed="1.00"/>
            </lane>
            <lane id="1si_1">
                <vehicle id="veh1" pos="30.80" speed="1.00"/>
            </lane>
            <lane id="1si_2"/>
        </edge>
    </timestep>
    <timestep time="38.00">
        <edge id="1si">
            <lane id="1si_0">
                <vehicle id="veh0" pos="37.80" speed="1.00"/>
            </lane>
            <lane id="1si_1">
                <vehicle id="veh1" pos="31.80" speed="1.00"/>
            </lane>
            <lane id="1si_2"/>
        </edge>
    </timestep>
    <timestep time="39.00">
        <edge id="1si">
            <lane id="1si_0">
                <vehicle id="veh0" pos="38.80" speed="1.00"/>
            </lane>
            <lane id="1si_1">
                <vehicle id="veh1" pos="32.80" speed="1.00"/>
            </lane>
            <lane id="1si_2"/>
        </edge>
    </timestep>
    <timestep time="40.00">
        <edge id="1si">
            <lane id="1si_0">
                <vehicle id="veh0" pos="39.80" speed="1.00"/>
            </lane>
            <lane id="1si_1">
                <vehicle id="veh1" pos="33.80" speed="1.00"/>
            </lane>
            <lane id="1si_2"/>
        </edge>
    </timestep>
    <timestep time="41.00">
        <edge id="1si">
            <lane id="1si_0">
                <vehicle id="veh0" pos="40.80" speed="1.00"/>
            </lane>
            <lane id="1si_1">
                <vehicle id="veh1" pos="34.80" speed="1.00"/>
            </lane>
            <lane id="1si_2"/>
        </edge>
    </timestep>
    <timestep time="42.00">
        <edge id="1si">
            <lane id="1si_0">
                <vehicle id="veh0" pos="41.80" speed="1.00"/>
            </lane>
            <lane id="1si_1">
                <vehicle id="veh1" pos="35.80" speed="1.00"/>
            </lane>
            <lane id="1si_2"/>
        </edge>
    </timestep>
    <timestep time="43.00">
        <edge id="1si">
            <lane id="1si_0">
                <vehicle id="veh0" pos="42.80" speed="1.00"/>
            </lane>
            <lane id="1si_1">
                <vehicle id="veh1" pos="36.80" speed="1.00"/>
            </lane>
            <lane id="1si_2"/>
        </edge>
    </timestep>
    <timestep time="44.00">
        <edge id="1si">
            <lane id="1si_0">
                <vehicle id="veh0" pos="43.80" speed="1.00"/>
            </lane>
            <lane id="1si_1">
                <vehicle id="veh1" pos="37.80" speed="1.00"/>
            </lane>
            <lane id="1si_2"/>
        </edge>
    </timestep>
    <timestep time="45.00">
        <edge id="1si">
            <lane id="1si_0">
                <vehicle id="veh0" pos="44.80" speed="1.00"/>
            </lane>
            <lane id="1si_1">
                <vehicle id="veh1" pos="38.80" speed="1.00"/>
            </lane>
            <lane id="1si_2"/>
        </edge>
    </timestep>
    <timestep time="46.00">
        <edge id="1si">
            <lane id="1si_0">
                <vehicle id="veh0" pos="45.80" speed="1.00"/>
            </lane>
            <lane id="1si_1">
                <vehicle id="veh1" pos="39.80" speed="1.00"/>
            </lane>
            <lane id="1si_2"/>
        </edge>
    </timestep>
    <timestep time="47.00">
        <edge id="1si">
            <lane id="1si_0">
                <vehicle id="veh0" pos="46.80" speed="1.00"/>
            </lane>
            <lane id="1si_1">
                <vehicle id="veh1" pos="40.80" speed="1.00"/>
            </lane>
            <lane id="1si_2"/>
        </edge>
    </timestep>
    <timestep time="48.00">
        <edge id="1si">
            <lane id="1si_0">
                <vehicle id="veh0" pos="47.80" speed="1.00"/>
            </lane>
            <lane id="1si_1">
                <vehicle id="veh1" pos="41.80" speed="1.00"/>
            </lane>
            <lane id="1si_2"/>
        </edge>
    </timestep>
    <timestep time="49.00">
        <edge id="1si">
            <lane id="1si_0">
                <vehicle id="veh0" pos="48.80" speed="1.00"/>
            </lane>
            <lane id="1si_1">
                <vehicle id="veh1" pos="42.80" speed="1.00"/>
            </lane>
            <lane id="1si_2"/>
        </edge>
    </timestep>
    <timestep time="50.00">
        <edge id="1si">
            <lane id="1si_0">
                <vehicle id="veh0" pos="49.80" speed="1.00"/>
            </lane>
            <lane id="1si_1">
                <vehicle id="veh1" pos="43.80" speed="1.00"/>
            </lane>
            <lane id="1si_2"/>
        </edge>
    </timestep>
    <timestep time="51.00">
        <edge id="1si">
            <lane id="1si_0">
                <vehicle id="veh0" pos="50.80" speed="1.00"/>
            </lane>
            <lane id="1si_1">
                <vehicle id="veh1" pos="44.80" speed="1.00"/>
            </lane>
            <lane id="1si_2"/>
        </edge>
    </timestep>
    <timestep time="52.00">
        <edge id="1si">
            <lane id="1si_0">
                <vehicle id="veh0" pos="51.80" speed="1.00"/>
            </lane>
            <lane id="1si_1">
                <vehicle id="veh1" pos="45.80" speed="1.00"/>
            </lane>
            <lane id="1si_2"/>
        </edge>
    </timestep>
    <timestep time="53.00">
        <edge id="1si">
            <lane id="1si_0">
                <vehicle id="veh0" pos="52.80" speed="1.00"/>
            </lane>
            <lane id="1si_1">
                <vehicle id="veh1" pos="46.80" speed="1.00"/>
            </lane>
            <lane id="1si_2"/>
        </edge>
    </timestep>
    <timestep time="54.00">
        <edge id="1si">
            <lane id="1si_0">
                <vehicle id="veh0" pos="53.80" speed="1.00"/>
            </lane>
            <lane id="1si_1">
                <vehicle id="veh1" pos="47.80" speed="1.00"/>
            </lane>
            <lane id="1si_2"/>
        </edge>
    </timestep>
    <timestep time="55.00">
        <edge id="1si">
            <lane id="1si_0">
                <vehicle id="veh0" pos="54.80" speed="1.00"/>
            </lane>
            <lane id="1si_1">
                <vehicle id="veh1" pos="48.80" speed="1.00"/>
            </lane>
            <lane id="1si_2"/>
        </edge>
    </timestep>
    <timestep time="56.00">
        <edge id="1si">
            <lane id="1si_0">
                <vehicle id="veh0" pos="55.80" speed="1.00"/>
            </lane>
            <lane id="1si_1">
                <vehicle id="veh1" pos="49.80" speed="1.00"/>
            </lane>
            <lane id="1si_2"/>
        </edge>
    </timestep>
    <timestep time="57.00">
        <edge id="1si">
            <lane id="1si_0">
                <vehicle id="veh0" pos="56.80" speed="1.00"/>
            </lane>
            <lane id="1si_1">
                <vehicle id="veh1" pos="50.80" speed="1.00"/>
            </lane>
            <lane id="1si_2"/>
        </edge>
    </timestep>
    <timestep time="58.00">
        <edge id="1si">
            <lane id="1si_0">
                <vehicle id="veh0" pos="57.80" speed="1.00"/>
            </lane>
            <lane id="1si_1">
                <vehicle id="veh1" pos="51.80" speed="1.00"/>
            </lane>
            <lane id="1si_2"/>
        </edge>
    </timestep>
    <timestep time="59.00">
        <edge id="1si">
            <lane id="1si_0">
                <vehicle id="veh0" pos="58.80" speed="1.00"/>
            </lane>
            <lane id="1si_1">
                <vehicle id="veh1" pos="52.80" speed="1.00"/>
            </lane>
            <lane id="1si_2"/>
        </edge>
    </timestep>
    <timestep time="60.00">
        <edge id="1si">
            <lane id="1si_0">
                <vehicle id="veh0" pos="59.80" speed="1.00"/>
            </lane>
            <lane id="1si_1">
                <vehicle id="veh1" pos="53.80" speed="1.00"/>
            </lane>
            <lane id="1si_2"/>
        </edge>
    </timestep>
    <timestep time="61.00">
        <edge id="1si">
            <lane id="1si_0">
                <vehicle id="veh0" pos="60.80" speed="1.00"/>
            </lane>
            <lane id="1si_1">
                <vehicle id="veh1" pos="54.80" speed="1.00"/>
            </lane>
            <lane id="1si_2"/>
        </edge>
    </timestep>
    <timestep time="62.00">
        <edge id="1si">
            <lane id="1si_0">
                <vehicle id="veh0" pos="61.80" speed="1.00"/>
            </lane>
            <lane id="1si_1">
                <vehicle id="veh1" pos="55.80" speed="1.00"/>
            </lane>
            <lane id="1si_2"/>
        </edge>
    </timestep>
    <timestep time="63.00">
        <edge id="1si">
            <lane id="1si_0">
                <vehicle id="veh0" pos="62.80" speed="1.00"/>
            </lane>
            <lane id="1si_1">
                <vehicle id="veh1" pos="56.80" speed="1.00"/>
            </lane>
            <lane id="1si_2"/>
        </edge>
    </timestep>
    <timestep time="64.00">
        <edge id="1si">
            <lane id="1si_0">
                <vehicle id="veh0" pos="63.80" speed="1.00"/>
            </lane>
            <lane id="1si_1">
                <vehicle id="veh1" pos="57.80" speed="1.00"/>
            </lane>
            <lane id="1si_2"/>
        </edge>
    </timestep>
    <timestep time="65.00">
        <edge id="1si">
            <lane id="1si_0">
                <vehicle id="veh0" pos="64.80" speed="1.00"/>
            </lane>
            <lane id="1si_1">
                <vehicle id="veh1" pos="58.80" speed="1.00"/>
            </lane>
            <lane id="1si_2"/>
        </edge>
    </timestep>
</netstate>
