<?xml version="1.0" encoding="UTF-8"?>

<!-- generated on 2021-08-24 11:19:12 by Eclipse SUMO sumo Version v1_10_0+0164-01159c2
This data file and the accompanying materials
are made available under the terms of the Eclipse Public License v2.0
which accompanies this distribution, and is available at
http://www.eclipse.org/legal/epl-v20.html
SPDX-License-Identifier: EPL-2.0
<configuration xmlns:xsi="http://www.w3.org/2001/XMLSchema-instance" xsi:noNamespaceSchemaLocation="http://sumo.dlr.de/xsd/sumoConfiguration.xsd">

    <input>
        <net-file value="net.net.xml"/>
        <route-files value="input_routes.rou.xml"/>
        <additional-files value="input_additional.add.xml"/>
    </input>

    <output>
        <write-license value="true"/>
        <tripinfo-output value="tripinfos.xml"/>
        <vehroute-output value="vehroutes.xml"/>
    </output>

    <processing>
        <default.speeddev value="0"/>
    </processing>

    <report>
        <verbose value="true"/>
        <xml-validation value="never"/>
        <xml-validation.routes value="never"/>
        <no-step-log value="true"/>
    </report>

</configuration>
-->

<tripinfos xmlns:xsi="http://www.w3.org/2001/XMLSchema-instance" xsi:noNamespaceSchemaLocation="http://sumo.dlr.de/xsd/tripinfo_file.xsd">
    <containerinfo id="c0" depart="0.00" type="DEFAULT_CONTAINERTYPE">
        <stop duration="1.00" arrival="1.00" arrivalPos="50.00" actType="waiting"/>
        <transport waitingTime="108.00" vehicle="car0" depart="109.00" arrival="128.00" arrivalPos="60.00" duration="19.00" routeLength="190.08" timeLoss="5.33"/>
    </containerinfo>
    <tripinfo id="car0" depart="10.00" departLane="1/3to0/3_0" departPos="5.10" departSpeed="0.00" departDelay="0.00" arrival="142.00" arrivalLane="0/4to1/4_0" arrivalPos="92.00" arrivalSpeed="13.00" duration="132.00" routeLength="276.98" waitingTime="0.00" waitingCount="0" stopTime="100.00" timeLoss="11.57" rerouteNo="1" devices="vehroute_car0 tripinfo_car0 routing_car0 container_car0" vType="DEFAULT_VEHTYPE" speedFactor="1.00" vaporized=""/>
    <containerinfo id="c1" depart="0.00" type="DEFAULT_CONTAINERTYPE">
        <stop duration="1.00" arrival="1.00" arrivalPos="50.00" actType="waiting"/>
        <transport waitingTime="142.00" vehicle="NULL" depart="-1" arrival="-1" arrivalPos="60.00" duration="-1" routeLength="-1.00" timeLoss="-1"/>
    </containerinfo>
</tripinfos>
