<?xml version="1.0" encoding="UTF-8"?>

<!-- generated on 2022-09-30 09:07:16 by Eclipse SUMO sumo Version v1_14_1+1358-2d6a15a
This data file and the accompanying materials
are made available under the terms of the Eclipse Public License v2.0
which accompanies this distribution, and is available at
http://www.eclipse.org/legal/epl-v20.html
This file may also be made available under the following Secondary
Licenses when the conditions for such availability set forth in the Eclipse
Public License 2.0 are satisfied: GNU General Public License, version 2
or later which is available at
https://www.gnu.org/licenses/old-licenses/gpl-2.0-standalone.html
SPDX-License-Identifier: EPL-2.0 OR GPL-2.0-or-later
<configuration xmlns:xsi="http://www.w3.org/2001/XMLSchema-instance" xsi:noNamespaceSchemaLocation="http://sumo.dlr.de/xsd/sumoConfiguration.xsd">

    <input>
        <net-file value="net.net.xml"/>
        <route-files value="input_routes.rou.xml"/>
        <additional-files value="input_additional.add.xml"/>
    </input>

    <output>
        <write-license value="true"/>
        <tripinfo-output value="tripinfos.xml"/>
        <vehroute-output value="vehroutes.xml"/>
    </output>

    <processing>
        <default.speeddev value="0"/>
    </processing>

    <report>
        <verbose value="true"/>
        <xml-validation value="never"/>
        <no-step-log value="true"/>
    </report>

</configuration>
-->

<routes xmlns:xsi="http://www.w3.org/2001/XMLSchema-instance" xsi:noNamespaceSchemaLocation="http://sumo.dlr.de/xsd/routes_file.xsd">
    <container id="c0" depart="0.00" arrival="128.00">
        <stop containerStop="containerStop0" duration="1.00"/>
        <transport from="1/3to0/3" to="0/4to1/4" containerStop="containerStop1" lines="car0"/>
    </container>

    <vehicle id="car0" depart="10.00" arrival="222.00">
        <route edges="1/3to0/3 0/3to0/4 0/4to1/4"/>
        <stop containerStop="containerStop0" duration="10.00"/>
        <stop containerStop="containerStop1" duration="10.00"/>
    </vehicle>

</routes>
