<?xml version="1.0" encoding="UTF-8"?>

<!-- generated on Mon Nov 13 11:30:46 2017 by SUMO Version v0_31_0-1095-g472623c
<?xml version="1.0" encoding="UTF-8"?>

<configuration xmlns:xsi="http://www.w3.org/2001/XMLSchema-instance" xsi:noNamespaceSchemaLocation="http://sumo.dlr.de/xsd/sumoConfiguration.xsd">

    <input>
        <net-file value="input_net.net.xml"/>
        <route-files value="input_routes.rou.xml"/>
    </input>

    <output>
        <vehroute-output value="vehroutes.xml"/>
        <save-state.times value="500"/>
        <save-state.files value="state.xml"/>
    </output>

    <report>
        <duration-log.disable value="true"/>
        <no-step-log value="true"/>
    </report>

</configuration>
-->

<snapshot xmlns:xsi="http://www.w3.org/2001/XMLSchema-instance" xsi:noNamespaceSchemaLocation="http://sumo.dlr.de/xsd/state_file.xsd" version="v0_31_0-1095-g472623c" time="500.00">
    <route id="!veh125" state="0" edges="gneE0 gneE3"/>
    <route id="!veh125!var#1" state="0" edges="gneE0 gneE4 gneE5 gneE3"/>
    <route id="!veh125!var#2" state="0" edges="gneE0 gneE1 gneE2 gneE3"/>
    <route id="!veh125!var#3" state="0" edges="gneE0 gneE4 gneE5 gneE3"/>
    <route id="!veh125!var#4" state="0" edges="gneE0 gneE1 gneE2 gneE3"/>
    <route id="!veh125!var#5" state="0" edges="gneE0 gneE4 gneE5 gneE3"/>
    <route id="!veh125!var#6" state="0" edges="gneE0 gneE1 gneE2 gneE3"/>
    <route id="!veh125!var#7" state="0" edges="gneE0 gneE4 gneE5 gneE3"/>
    <route id="!veh126" state="0" edges="gneE0 gneE3"/>
    <route id="!veh126!var#1" state="0" edges="gneE0 gneE4 gneE5 gneE3"/>
    <route id="!veh126!var#2" state="0" edges="gneE0 gneE1 gneE2 gneE3"/>
    <route id="!veh126!var#3" state="0" edges="gneE0 gneE4 gneE5 gneE3"/>
    <route id="!veh126!var#4" state="0" edges="gneE0 gneE1 gneE2 gneE3"/>
    <route id="!veh126!var#5" state="0" edges="gneE0 gneE4 gneE5 gneE3"/>
    <route id="!veh126!var#6" state="0" edges="gneE0 gneE1 gneE2 gneE3"/>
    <route id="!veh126!var#7" state="0" edges="gneE0 gneE4 gneE5 gneE3"/>
    <route id="!veh127" state="0" edges="gneE0 gneE3"/>
    <route id="!veh127!var#1" state="0" edges="gneE0 gneE4 gneE5 gneE3"/>
    <route id="!veh127!var#2" state="0" edges="gneE0 gneE1 gneE2 gneE3"/>
    <route id="!veh127!var#3" state="0" edges="gneE0 gneE4 gneE5 gneE3"/>
    <route id="!veh127!var#4" state="0" edges="gneE0 gneE1 gneE2 gneE3"/>
    <route id="!veh127!var#5" state="0" edges="gneE0 gneE4 gneE5 gneE3"/>
    <route id="!veh127!var#6" state="0" edges="gneE0 gneE1 gneE2 gneE3"/>
    <route id="!veh127!var#7" state="0" edges="gneE0 gneE4 gneE5 gneE3"/>
    <route id="!veh128" state="0" edges="gneE0 gneE3"/>
    <route id="!veh128!var#1" state="0" edges="gneE0 gneE4 gneE5 gneE3"/>
    <route id="!veh128!var#2" state="0" edges="gneE0 gneE1 gneE2 gneE3"/>
    <route id="!veh128!var#3" state="0" edges="gneE0 gneE4 gneE5 gneE3"/>
    <route id="!veh128!var#4" state="0" edges="gneE0 gneE1 gneE2 gneE3"/>
    <route id="!veh128!var#5" state="0" edges="gneE0 gneE4 gneE5 gneE3"/>
    <route id="!veh128!var#6" state="0" edges="gneE0 gneE1 gneE2 gneE3"/>
    <route id="!veh128!var#7" state="0" edges="gneE0 gneE4 gneE5 gneE3"/>
    <route id="!veh129" state="0" edges="gneE0 gneE3"/>
    <route id="!veh129!var#1" state="0" edges="gneE0 gneE4 gneE5 gneE3"/>
    <route id="!veh129!var#2" state="0" edges="gneE0 gneE1 gneE2 gneE3"/>
    <route id="!veh129!var#3" state="0" edges="gneE0 gneE4 gneE5 gneE3"/>
    <route id="!veh129!var#4" state="0" edges="gneE0 gneE1 gneE2 gneE3"/>
    <route id="!veh129!var#5" state="0" edges="gneE0 gneE4 gneE5 gneE3"/>
    <route id="!veh129!var#6" state="0" edges="gneE0 gneE1 gneE2 gneE3"/>
    <route id="!veh129!var#7" state="0" edges="gneE0 gneE4 gneE5 gneE3"/>
    <route id="!veh130" state="0" edges="gneE0 gneE3"/>
    <route id="!veh130!var#1" state="0" edges="gneE0 gneE4 gneE5 gneE3"/>
    <route id="!veh130!var#2" state="0" edges="gneE0 gneE1 gneE2 gneE3"/>
    <route id="!veh130!var#3" state="0" edges="gneE0 gneE4 gneE5 gneE3"/>
    <route id="!veh130!var#4" state="0" edges="gneE0 gneE1 gneE2 gneE3"/>
    <route id="!veh130!var#5" state="0" edges="gneE0 gneE4 gneE5 gneE3"/>
    <route id="!veh130!var#6" state="0" edges="gneE0 gneE1 gneE2 gneE3"/>
    <route id="!veh130!var#7" state="0" edges="gneE0 gneE4 gneE5 gneE3"/>
    <route id="!veh131" state="0" edges="gneE0 gneE3"/>
    <route id="!veh131!var#1" state="0" edges="gneE0 gneE4 gneE5 gneE3"/>
    <route id="!veh131!var#2" state="0" edges="gneE0 gneE1 gneE2 gneE3"/>
    <route id="!veh131!var#3" state="0" edges="gneE0 gneE4 gneE5 gneE3"/>
    <route id="!veh131!var#4" state="0" edges="gneE0 gneE1 gneE2 gneE3"/>
    <route id="!veh131!var#5" state="0" edges="gneE0 gneE4 gneE5 gneE3"/>
    <route id="!veh131!var#6" state="0" edges="gneE0 gneE1 gneE2 gneE3"/>
    <route id="!veh131!var#7" state="0" edges="gneE0 gneE4 gneE5 gneE3"/>
    <route id="!veh132" state="0" edges="gneE0 gneE3"/>
    <route id="!veh132!var#1" state="0" edges="gneE0 gneE4 gneE5 gneE3"/>
    <route id="!veh132!var#2" state="0" edges="gneE0 gneE1 gneE2 gneE3"/>
    <route id="!veh132!var#3" state="0" edges="gneE0 gneE4 gneE5 gneE3"/>
    <route id="!veh132!var#4" state="0" edges="gneE0 gneE1 gneE2 gneE3"/>
    <route id="!veh132!var#5" state="0" edges="gneE0 gneE4 gneE5 gneE3"/>
    <route id="!veh132!var#6" state="0" edges="gneE0 gneE1 gneE2 gneE3"/>
    <route id="!veh132!var#7" state="0" edges="gneE0 gneE4 gneE5 gneE3"/>
    <route id="!veh133" state="0" edges="gneE0 gneE3"/>
    <route id="!veh133!var#1" state="0" edges="gneE0 gneE4 gneE5 gneE3"/>
    <route id="!veh133!var#2" state="0" edges="gneE0 gneE1 gneE2 gneE3"/>
    <route id="!veh133!var#3" state="0" edges="gneE0 gneE4 gneE5 gneE3"/>
    <route id="!veh133!var#4" state="0" edges="gneE0 gneE1 gneE2 gneE3"/>
    <route id="!veh133!var#5" state="0" edges="gneE0 gneE4 gneE5 gneE3"/>
    <route id="!veh133!var#6" state="0" edges="gneE0 gneE1 gneE2 gneE3"/>
    <route id="!veh133!var#7" state="0" edges="gneE0 gneE4 gneE5 gneE3"/>
    <route id="!veh134" state="0" edges="gneE0 gneE3"/>
    <route id="!veh134!var#1" state="0" edges="gneE0 gneE4 gneE5 gneE3"/>
    <route id="!veh134!var#2" state="0" edges="gneE0 gneE1 gneE2 gneE3"/>
    <route id="!veh134!var#3" state="0" edges="gneE0 gneE4 gneE5 gneE3"/>
    <route id="!veh134!var#4" state="0" edges="gneE0 gneE1 gneE2 gneE3"/>
    <route id="!veh134!var#5" state="0" edges="gneE0 gneE4 gneE5 gneE3"/>
    <route id="!veh134!var#6" state="0" edges="gneE0 gneE1 gneE2 gneE3"/>
    <route id="!veh134!var#7" state="0" edges="gneE0 gneE4 gneE5 gneE3"/>
    <route id="!veh135" state="0" edges="gneE0 gneE3"/>
    <route id="!veh135!var#1" state="0" edges="gneE0 gneE4 gneE5 gneE3"/>
    <route id="!veh135!var#2" state="0" edges="gneE0 gneE1 gneE2 gneE3"/>
    <route id="!veh135!var#3" state="0" edges="gneE0 gneE4 gneE5 gneE3"/>
    <route id="!veh135!var#4" state="0" edges="gneE0 gneE1 gneE2 gneE3"/>
    <route id="!veh135!var#5" state="0" edges="gneE0 gneE4 gneE5 gneE3"/>
    <route id="!veh135!var#6" state="0" edges="gneE0 gneE1 gneE2 gneE3"/>
    <route id="!veh135!var#7" state="0" edges="gneE0 gneE4 gneE5 gneE3"/>
    <route id="!veh136" state="0" edges="gneE0 gneE3"/>
    <route id="!veh136!var#1" state="0" edges="gneE0 gneE4 gneE5 gneE3"/>
    <route id="!veh136!var#2" state="0" edges="gneE0 gneE1 gneE2 gneE3"/>
    <route id="!veh136!var#3" state="0" edges="gneE0 gneE4 gneE5 gneE3"/>
    <route id="!veh136!var#4" state="0" edges="gneE0 gneE1 gneE2 gneE3"/>
    <route id="!veh136!var#5" state="0" edges="gneE0 gneE4 gneE5 gneE3"/>
    <route id="!veh136!var#6" state="0" edges="gneE0 gneE1 gneE2 gneE3"/>
    <route id="!veh136!var#7" state="0" edges="gneE0 gneE4 gneE5 gneE3"/>
    <route id="!veh137" state="0" edges="gneE0 gneE3"/>
    <route id="!veh137!var#1" state="0" edges="gneE0 gneE4 gneE5 gneE3"/>
    <route id="!veh137!var#2" state="0" edges="gneE0 gneE1 gneE2 gneE3"/>
    <route id="!veh137!var#3" state="0" edges="gneE0 gneE4 gneE5 gneE3"/>
    <route id="!veh137!var#4" state="0" edges="gneE0 gneE1 gneE2 gneE3"/>
    <route id="!veh137!var#5" state="0" edges="gneE0 gneE4 gneE5 gneE3"/>
    <route id="!veh137!var#6" state="0" edges="gneE0 gneE1 gneE2 gneE3"/>
    <route id="!veh137!var#7" state="0" edges="gneE0 gneE4 gneE5 gneE3"/>
    <route id="!veh138" state="0" edges="gneE0 gneE3"/>
    <route id="!veh138!var#1" state="0" edges="gneE0 gneE4 gneE5 gneE3"/>
    <route id="!veh138!var#2" state="0" edges="gneE0 gneE1 gneE2 gneE3"/>
    <route id="!veh138!var#3" state="0" edges="gneE0 gneE4 gneE5 gneE3"/>
    <route id="!veh138!var#4" state="0" edges="gneE0 gneE1 gneE2 gneE3"/>
    <route id="!veh138!var#5" state="0" edges="gneE0 gneE4 gneE5 gneE3"/>
    <route id="!veh138!var#6" state="0" edges="gneE0 gneE1 gneE2 gneE3"/>
    <route id="!veh138!var#7" state="0" edges="gneE0 gneE4 gneE5 gneE3"/>
    <route id="!veh139" state="0" edges="gneE0 gneE3"/>
    <route id="!veh139!var#1" state="0" edges="gneE0 gneE4 gneE5 gneE3"/>
    <route id="!veh139!var#2" state="0" edges="gneE0 gneE1 gneE2 gneE3"/>
    <route id="!veh139!var#3" state="0" edges="gneE0 gneE4 gneE5 gneE3"/>
    <route id="!veh139!var#4" state="0" edges="gneE0 gneE1 gneE2 gneE3"/>
    <route id="!veh139!var#5" state="0" edges="gneE0 gneE4 gneE5 gneE3"/>
    <route id="!veh139!var#6" state="0" edges="gneE0 gneE1 gneE2 gneE3"/>
    <route id="!veh139!var#7" state="0" edges="gneE0 gneE4 gneE5 gneE3"/>
    <route id="!veh140" state="0" edges="gneE0 gneE3"/>
    <route id="!veh140!var#1" state="0" edges="gneE0 gneE4 gneE5 gneE3"/>
    <route id="!veh140!var#2" state="0" edges="gneE0 gneE1 gneE2 gneE3"/>
    <route id="!veh140!var#3" state="0" edges="gneE0 gneE4 gneE5 gneE3"/>
    <route id="!veh140!var#4" state="0" edges="gneE0 gneE1 gneE2 gneE3"/>
    <route id="!veh140!var#5" state="0" edges="gneE0 gneE4 gneE5 gneE3"/>
    <route id="!veh140!var#6" state="0" edges="gneE0 gneE1 gneE2 gneE3"/>
    <route id="!veh140!var#7" state="0" edges="gneE0 gneE4 gneE5 gneE3"/>
    <route id="!veh141" state="0" edges="gneE0 gneE3"/>
    <route id="!veh141!var#1" state="0" edges="gneE0 gneE4 gneE5 gneE3"/>
    <route id="!veh141!var#2" state="0" edges="gneE0 gneE1 gneE2 gneE3"/>
    <route id="!veh141!var#3" state="0" edges="gneE0 gneE4 gneE5 gneE3"/>
    <route id="!veh141!var#4" state="0" edges="gneE0 gneE1 gneE2 gneE3"/>
    <route id="!veh141!var#5" state="0" edges="gneE0 gneE4 gneE5 gneE3"/>
    <route id="!veh141!var#6" state="0" edges="gneE0 gneE1 gneE2 gneE3"/>
    <route id="!veh141!var#7" state="0" edges="gneE0 gneE4 gneE5 gneE3"/>
    <route id="!veh142" state="0" edges="gneE0 gneE3"/>
    <route id="!veh142!var#1" state="0" edges="gneE0 gneE4 gneE5 gneE3"/>
    <route id="!veh142!var#2" state="0" edges="gneE0 gneE1 gneE2 gneE3"/>
    <route id="!veh142!var#3" state="0" edges="gneE0 gneE4 gneE5 gneE3"/>
    <route id="!veh142!var#4" state="0" edges="gneE0 gneE1 gneE2 gneE3"/>
    <route id="!veh142!var#5" state="0" edges="gneE0 gneE4 gneE5 gneE3"/>
    <route id="!veh142!var#6" state="0" edges="gneE0 gneE1 gneE2 gneE3"/>
    <route id="!veh142!var#7" state="0" edges="gneE0 gneE4 gneE5 gneE3"/>
    <route id="!veh143" state="0" edges="gneE0 gneE3"/>
    <route id="!veh143!var#1" state="0" edges="gneE0 gneE4 gneE5 gneE3"/>
    <route id="!veh143!var#2" state="0" edges="gneE0 gneE1 gneE2 gneE3"/>
    <route id="!veh143!var#3" state="0" edges="gneE0 gneE4 gneE5 gneE3"/>
    <route id="!veh143!var#4" state="0" edges="gneE0 gneE1 gneE2 gneE3"/>
    <route id="!veh143!var#5" state="0" edges="gneE0 gneE4 gneE5 gneE3"/>
    <route id="!veh143!var#6" state="0" edges="gneE0 gneE1 gneE2 gneE3"/>
    <route id="!veh143!var#7" state="0" edges="gneE0 gneE4 gneE5 gneE3"/>
    <route id="!veh144" state="0" edges="gneE0 gneE3"/>
    <route id="!veh144!var#1" state="0" edges="gneE0 gneE4 gneE5 gneE3"/>
    <route id="!veh144!var#2" state="0" edges="gneE0 gneE1 gneE2 gneE3"/>
    <route id="!veh144!var#3" state="0" edges="gneE0 gneE4 gneE5 gneE3"/>
    <route id="!veh144!var#4" state="0" edges="gneE0 gneE1 gneE2 gneE3"/>
    <route id="!veh144!var#5" state="0" edges="gneE0 gneE4 gneE5 gneE3"/>
    <route id="!veh144!var#6" state="0" edges="gneE0 gneE1 gneE2 gneE3"/>
    <route id="!veh144!var#7" state="0" edges="gneE0 gneE4 gneE5 gneE3"/>
    <route id="!veh145" state="0" edges="gneE0 gneE3"/>
    <route id="!veh145!var#1" state="0" edges="gneE0 gneE4 gneE5 gneE3"/>
    <route id="!veh145!var#2" state="0" edges="gneE0 gneE1 gneE2 gneE3"/>
    <route id="!veh145!var#3" state="0" edges="gneE0 gneE4 gneE5 gneE3"/>
    <route id="!veh145!var#4" state="0" edges="gneE0 gneE1 gneE2 gneE3"/>
    <route id="!veh145!var#5" state="0" edges="gneE0 gneE4 gneE5 gneE3"/>
    <route id="!veh145!var#6" state="0" edges="gneE0 gneE1 gneE2 gneE3"/>
    <route id="!veh145!var#7" state="0" edges="gneE0 gneE4 gneE5 gneE3"/>
    <route id="!veh146" state="0" edges="gneE0 gneE3"/>
    <route id="!veh146!var#1" state="0" edges="gneE0 gneE4 gneE5 gneE3"/>
    <route id="!veh146!var#2" state="0" edges="gneE0 gneE1 gneE2 gneE3"/>
    <route id="!veh146!var#3" state="0" edges="gneE0 gneE4 gneE5 gneE3"/>
    <route id="!veh146!var#4" state="0" edges="gneE0 gneE1 gneE2 gneE3"/>
    <route id="!veh146!var#5" state="0" edges="gneE0 gneE4 gneE5 gneE3"/>
    <route id="!veh146!var#6" state="0" edges="gneE0 gneE1 gneE2 gneE3"/>
    <route id="!veh146!var#7" state="0" edges="gneE0 gneE4 gneE5 gneE3"/>
    <route id="!veh147" state="0" edges="gneE0 gneE3"/>
    <route id="!veh147!var#1" state="0" edges="gneE0 gneE4 gneE5 gneE3"/>
    <route id="!veh147!var#2" state="0" edges="gneE0 gneE1 gneE2 gneE3"/>
    <route id="!veh147!var#3" state="0" edges="gneE0 gneE4 gneE5 gneE3"/>
    <route id="!veh147!var#4" state="0" edges="gneE0 gneE1 gneE2 gneE3"/>
    <route id="!veh147!var#5" state="0" edges="gneE0 gneE4 gneE5 gneE3"/>
    <route id="!veh147!var#6" state="0" edges="gneE0 gneE1 gneE2 gneE3"/>
    <route id="!veh147!var#7" state="0" edges="gneE0 gneE4 gneE5 gneE3"/>
    <route id="!veh148" state="0" edges="gneE0 gneE3"/>
    <route id="!veh148!var#1" state="0" edges="gneE0 gneE4 gneE5 gneE3"/>
    <route id="!veh148!var#2" state="0" edges="gneE0 gneE1 gneE2 gneE3"/>
    <route id="!veh148!var#3" state="0" edges="gneE0 gneE4 gneE5 gneE3"/>
    <route id="!veh148!var#4" state="0" edges="gneE0 gneE1 gneE2 gneE3"/>
    <route id="!veh148!var#5" state="0" edges="gneE0 gneE4 gneE5 gneE3"/>
    <route id="!veh148!var#6" state="0" edges="gneE0 gneE1 gneE2 gneE3"/>
    <route id="!veh148!var#7" state="0" edges="gneE0 gneE4 gneE5 gneE3"/>
    <route id="!veh149" state="0" edges="gneE0 gneE3"/>
    <route id="!veh149!var#1" state="0" edges="gneE0 gneE4 gneE5 gneE3"/>
    <route id="!veh149!var#2" state="0" edges="gneE0 gneE1 gneE2 gneE3"/>
    <route id="!veh149!var#3" state="0" edges="gneE0 gneE4 gneE5 gneE3"/>
    <route id="!veh149!var#4" state="0" edges="gneE0 gneE1 gneE2 gneE3"/>
    <route id="!veh149!var#5" state="0" edges="gneE0 gneE4 gneE5 gneE3"/>
    <route id="!veh149!var#6" state="0" edges="gneE0 gneE1 gneE2 gneE3"/>
    <route id="!veh149!var#7" state="0" edges="gneE0 gneE4 gneE5 gneE3"/>
    <route id="!veh150" state="0" edges="gneE0 gneE3"/>
    <route id="!veh150!var#1" state="0" edges="gneE0 gneE4 gneE5 gneE3"/>
    <route id="!veh150!var#2" state="0" edges="gneE0 gneE1 gneE2 gneE3"/>
    <route id="!veh150!var#3" state="0" edges="gneE0 gneE4 gneE5 gneE3"/>
    <route id="!veh150!var#4" state="0" edges="gneE0 gneE1 gneE2 gneE3"/>
    <route id="!veh150!var#5" state="0" edges="gneE0 gneE4 gneE5 gneE3"/>
    <route id="!veh150!var#6" state="0" edges="gneE0 gneE1 gneE2 gneE3"/>
    <route id="!veh150!var#7" state="0" edges="gneE0 gneE4 gneE5 gneE3"/>
    <route id="!veh151" state="0" edges="gneE0 gneE3"/>
    <route id="!veh151!var#1" state="0" edges="gneE0 gneE4 gneE5 gneE3"/>
    <route id="!veh151!var#2" state="0" edges="gneE0 gneE1 gneE2 gneE3"/>
    <route id="!veh151!var#3" state="0" edges="gneE0 gneE4 gneE5 gneE3"/>
    <route id="!veh151!var#4" state="0" edges="gneE0 gneE1 gneE2 gneE3"/>
    <route id="!veh151!var#5" state="0" edges="gneE0 gneE4 gneE5 gneE3"/>
    <route id="!veh151!var#6" state="0" edges="gneE0 gneE1 gneE2 gneE3"/>
    <route id="!veh151!var#7" state="0" edges="gneE0 gneE4 gneE5 gneE3"/>
    <route id="!veh152" state="0" edges="gneE0 gneE3"/>
    <route id="!veh152!var#1" state="0" edges="gneE0 gneE4 gneE5 gneE3"/>
    <route id="!veh152!var#2" state="0" edges="gneE0 gneE1 gneE2 gneE3"/>
    <route id="!veh152!var#3" state="0" edges="gneE0 gneE4 gneE5 gneE3"/>
    <route id="!veh152!var#4" state="0" edges="gneE0 gneE1 gneE2 gneE3"/>
    <route id="!veh152!var#5" state="0" edges="gneE0 gneE4 gneE5 gneE3"/>
    <route id="!veh152!var#6" state="0" edges="gneE0 gneE1 gneE2 gneE3"/>
    <route id="!veh152!var#7" state="0" edges="gneE0 gneE4 gneE5 gneE3"/>
    <route id="!veh153" state="0" edges="gneE0 gneE3"/>
    <route id="!veh153!var#1" state="0" edges="gneE0 gneE4 gneE5 gneE3"/>
    <route id="!veh153!var#2" state="0" edges="gneE0 gneE1 gneE2 gneE3"/>
    <route id="!veh153!var#3" state="0" edges="gneE0 gneE4 gneE5 gneE3"/>
    <route id="!veh153!var#4" state="0" edges="gneE0 gneE1 gneE2 gneE3"/>
    <route id="!veh153!var#5" state="0" edges="gneE0 gneE4 gneE5 gneE3"/>
    <route id="!veh153!var#6" state="0" edges="gneE0 gneE1 gneE2 gneE3"/>
    <route id="!veh153!var#7" state="0" edges="gneE0 gneE4 gneE5 gneE3"/>
    <route id="!veh154" state="0" edges="gneE0 gneE3"/>
    <route id="!veh154!var#1" state="0" edges="gneE0 gneE4 gneE5 gneE3"/>
    <route id="!veh154!var#2" state="0" edges="gneE0 gneE1 gneE2 gneE3"/>
    <route id="!veh154!var#3" state="0" edges="gneE0 gneE4 gneE5 gneE3"/>
    <route id="!veh154!var#4" state="0" edges="gneE0 gneE1 gneE2 gneE3"/>
    <route id="!veh154!var#5" state="0" edges="gneE0 gneE4 gneE5 gneE3"/>
    <route id="!veh154!var#6" state="0" edges="gneE0 gneE1 gneE2 gneE3"/>
    <route id="!veh154!var#7" state="0" edges="gneE0 gneE4 gneE5 gneE3"/>
    <route id="!veh155" state="0" edges="gneE0 gneE3"/>
    <route id="!veh155!var#1" state="0" edges="gneE0 gneE4 gneE5 gneE3"/>
    <route id="!veh155!var#2" state="0" edges="gneE0 gneE1 gneE2 gneE3"/>
    <route id="!veh155!var#3" state="0" edges="gneE0 gneE4 gneE5 gneE3"/>
    <route id="!veh155!var#4" state="0" edges="gneE0 gneE1 gneE2 gneE3"/>
    <route id="!veh155!var#5" state="0" edges="gneE0 gneE4 gneE5 gneE3"/>
    <route id="!veh155!var#6" state="0" edges="gneE0 gneE1 gneE2 gneE3"/>
    <route id="!veh155!var#7" state="0" edges="gneE0 gneE4 gneE5 gneE3"/>
    <route id="!veh156" state="0" edges="gneE0 gneE3"/>
    <route id="!veh156!var#1" state="0" edges="gneE0 gneE4 gneE5 gneE3"/>
    <route id="!veh156!var#2" state="0" edges="gneE0 gneE1 gneE2 gneE3"/>
    <route id="!veh156!var#3" state="0" edges="gneE0 gneE4 gneE5 gneE3"/>
    <route id="!veh156!var#4" state="0" edges="gneE0 gneE1 gneE2 gneE3"/>
    <route id="!veh156!var#5" state="0" edges="gneE0 gneE4 gneE5 gneE3"/>
    <route id="!veh156!var#6" state="0" edges="gneE0 gneE1 gneE2 gneE3"/>
    <route id="!veh156!var#7" state="0" edges="gneE0 gneE4 gneE5 gneE3"/>
    <route id="!veh157" state="0" edges="gneE0 gneE3"/>
    <route id="!veh157!var#1" state="0" edges="gneE0 gneE4 gneE5 gneE3"/>
    <route id="!veh157!var#2" state="0" edges="gneE0 gneE1 gneE2 gneE3"/>
    <route id="!veh157!var#3" state="0" edges="gneE0 gneE4 gneE5 gneE3"/>
    <route id="!veh157!var#4" state="0" edges="gneE0 gneE1 gneE2 gneE3"/>
    <route id="!veh157!var#5" state="0" edges="gneE0 gneE4 gneE5 gneE3"/>
    <route id="!veh157!var#6" state="0" edges="gneE0 gneE1 gneE2 gneE3"/>
    <route id="!veh157!var#7" state="0" edges="gneE0 gneE4 gneE5 gneE3"/>
    <route id="!veh158" state="0" edges="gneE0 gneE3"/>
    <route id="!veh158!var#1" state="0" edges="gneE0 gneE4 gneE5 gneE3"/>
    <route id="!veh158!var#2" state="0" edges="gneE0 gneE1 gneE2 gneE3"/>
    <route id="!veh158!var#3" state="0" edges="gneE0 gneE4 gneE5 gneE3"/>
    <route id="!veh158!var#4" state="0" edges="gneE0 gneE1 gneE2 gneE3"/>
    <route id="!veh158!var#5" state="0" edges="gneE0 gneE4 gneE5 gneE3"/>
    <route id="!veh158!var#6" state="0" edges="gneE0 gneE1 gneE2 gneE3"/>
    <route id="!veh158!var#7" state="0" edges="gneE0 gneE4 gneE5 gneE3"/>
    <route id="!veh159" state="0" edges="gneE0 gneE3"/>
    <route id="!veh159!var#1" state="0" edges="gneE0 gneE4 gneE5 gneE3"/>
    <route id="!veh159!var#2" state="0" edges="gneE0 gneE1 gneE2 gneE3"/>
    <route id="!veh159!var#3" state="0" edges="gneE0 gneE4 gneE5 gneE3"/>
    <route id="!veh159!var#4" state="0" edges="gneE0 gneE1 gneE2 gneE3"/>
    <route id="!veh159!var#5" state="0" edges="gneE0 gneE4 gneE5 gneE3"/>
    <route id="!veh159!var#6" state="0" edges="gneE0 gneE1 gneE2 gneE3"/>
    <route id="!veh159!var#7" state="0" edges="gneE0 gneE4 gneE5 gneE3"/>
    <route id="!veh160" state="0" edges="gneE0 gneE3"/>
    <route id="!veh160!var#1" state="0" edges="gneE0 gneE4 gneE5 gneE3"/>
    <route id="!veh160!var#2" state="0" edges="gneE0 gneE1 gneE2 gneE3"/>
    <route id="!veh160!var#3" state="0" edges="gneE0 gneE4 gneE5 gneE3"/>
    <route id="!veh160!var#4" state="0" edges="gneE0 gneE1 gneE2 gneE3"/>
    <route id="!veh160!var#5" state="0" edges="gneE0 gneE4 gneE5 gneE3"/>
    <route id="!veh160!var#6" state="0" edges="gneE0 gneE1 gneE2 gneE3"/>
    <route id="!veh160!var#7" state="0" edges="gneE0 gneE4 gneE5 gneE3"/>
    <route id="!veh161" state="0" edges="gneE0 gneE3"/>
    <route id="!veh161!var#1" state="0" edges="gneE0 gneE4 gneE5 gneE3"/>
    <route id="!veh161!var#2" state="0" edges="gneE0 gneE1 gneE2 gneE3"/>
    <route id="!veh161!var#3" state="0" edges="gneE0 gneE4 gneE5 gneE3"/>
    <route id="!veh161!var#4" state="0" edges="gneE0 gneE1 gneE2 gneE3"/>
    <route id="!veh161!var#5" state="0" edges="gneE0 gneE4 gneE5 gneE3"/>
    <route id="!veh161!var#6" state="0" edges="gneE0 gneE1 gneE2 gneE3"/>
    <route id="!veh161!var#7" state="0" edges="gneE0 gneE4 gneE5 gneE3"/>
    <route id="!veh162" state="0" edges="gneE0 gneE3"/>
    <route id="!veh162!var#1" state="0" edges="gneE0 gneE4 gneE5 gneE3"/>
    <route id="!veh162!var#2" state="0" edges="gneE0 gneE1 gneE2 gneE3"/>
    <route id="!veh162!var#3" state="0" edges="gneE0 gneE4 gneE5 gneE3"/>
    <route id="!veh162!var#4" state="0" edges="gneE0 gneE1 gneE2 gneE3"/>
    <route id="!veh162!var#5" state="0" edges="gneE0 gneE4 gneE5 gneE3"/>
    <route id="!veh162!var#6" state="0" edges="gneE0 gneE1 gneE2 gneE3"/>
    <route id="!veh162!var#7" state="0" edges="gneE0 gneE4 gneE5 gneE3"/>
    <route id="!veh163" state="0" edges="gneE0 gneE3"/>
    <route id="!veh163!var#1" state="0" edges="gneE0 gneE4 gneE5 gneE3"/>
    <route id="!veh163!var#2" state="0" edges="gneE0 gneE1 gneE2 gneE3"/>
    <route id="!veh163!var#3" state="0" edges="gneE0 gneE4 gneE5 gneE3"/>
    <route id="!veh163!var#4" state="0" edges="gneE0 gneE1 gneE2 gneE3"/>
    <route id="!veh163!var#5" state="0" edges="gneE0 gneE4 gneE5 gneE3"/>
    <route id="!veh163!var#6" state="0" edges="gneE0 gneE1 gneE2 gneE3"/>
    <route id="!veh163!var#7" state="0" edges="gneE0 gneE4 gneE5 gneE3"/>
    <route id="!veh164" state="0" edges="gneE0 gneE3"/>
    <route id="!veh164!var#1" state="0" edges="gneE0 gneE4 gneE5 gneE3"/>
    <route id="!veh164!var#2" state="0" edges="gneE0 gneE1 gneE2 gneE3"/>
    <route id="!veh164!var#3" state="0" edges="gneE0 gneE4 gneE5 gneE3"/>
    <route id="!veh164!var#4" state="0" edges="gneE0 gneE1 gneE2 gneE3"/>
    <route id="!veh164!var#5" state="0" edges="gneE0 gneE4 gneE5 gneE3"/>
    <route id="!veh164!var#6" state="0" edges="gneE0 gneE1 gneE2 gneE3"/>
    <route id="!veh164!var#7" state="0" edges="gneE0 gneE4 gneE5 gneE3"/>
    <route id="!veh165" state="0" edges="gneE0 gneE3"/>
    <route id="!veh165!var#1" state="0" edges="gneE0 gneE4 gneE5 gneE3"/>
    <route id="!veh165!var#2" state="0" edges="gneE0 gneE1 gneE2 gneE3"/>
    <route id="!veh165!var#3" state="0" edges="gneE0 gneE4 gneE5 gneE3"/>
    <route id="!veh165!var#4" state="0" edges="gneE0 gneE1 gneE2 gneE3"/>
    <route id="!veh165!var#5" state="0" edges="gneE0 gneE4 gneE5 gneE3"/>
    <route id="!veh165!var#6" state="0" edges="gneE0 gneE1 gneE2 gneE3"/>
    <route id="!veh165!var#7" state="0" edges="gneE0 gneE4 gneE5 gneE3"/>
    <route id="!veh166" state="0" edges="gneE0 gneE3"/>
    <route id="!veh166!var#1" state="0" edges="gneE0 gneE4 gneE5 gneE3"/>
    <route id="!veh166!var#2" state="0" edges="gneE0 gneE1 gneE2 gneE3"/>
    <route id="!veh166!var#3" state="0" edges="gneE0 gneE4 gneE5 gneE3"/>
    <route id="!veh166!var#4" state="0" edges="gneE0 gneE1 gneE2 gneE3"/>
    <route id="!veh166!var#5" state="0" edges="gneE0 gneE4 gneE5 gneE3"/>
    <route id="!veh166!var#6" state="0" edges="gneE0 gneE1 gneE2 gneE3"/>
    <route id="!veh166!var#7" state="0" edges="gneE0 gneE4 gneE5 gneE3"/>
    <route id="!veh167" state="0" edges="gneE0 gneE3"/>
    <route id="!veh167!var#1" state="0" edges="gneE0 gneE4 gneE5 gneE3"/>
    <route id="!veh167!var#2" state="0" edges="gneE0 gneE1 gneE2 gneE3"/>
    <route id="!veh167!var#3" state="0" edges="gneE0 gneE4 gneE5 gneE3"/>
    <route id="!veh167!var#4" state="0" edges="gneE0 gneE1 gneE2 gneE3"/>
    <route id="!veh167!var#5" state="0" edges="gneE0 gneE4 gneE5 gneE3"/>
    <route id="!veh167!var#6" state="0" edges="gneE0 gneE1 gneE2 gneE3"/>
    <route id="!veh167!var#7" state="0" edges="gneE0 gneE4 gneE5 gneE3"/>
    <route id="!veh168" state="0" edges="gneE0 gneE3"/>
    <route id="!veh168!var#1" state="0" edges="gneE0 gneE4 gneE5 gneE3"/>
    <route id="!veh168!var#2" state="0" edges="gneE0 gneE1 gneE2 gneE3"/>
    <route id="!veh168!var#3" state="0" edges="gneE0 gneE4 gneE5 gneE3"/>
    <route id="!veh168!var#4" state="0" edges="gneE0 gneE1 gneE2 gneE3"/>
    <route id="!veh168!var#5" state="0" edges="gneE0 gneE4 gneE5 gneE3"/>
    <route id="!veh168!var#6" state="0" edges="gneE0 gneE1 gneE2 gneE3"/>
    <route id="!veh168!var#7" state="0" edges="gneE0 gneE4 gneE5 gneE3"/>
    <route id="!veh169" state="0" edges="gneE0 gneE3"/>
    <route id="!veh169!var#1" state="0" edges="gneE0 gneE4 gneE5 gneE3"/>
    <route id="!veh169!var#2" state="0" edges="gneE0 gneE1 gneE2 gneE3"/>
    <route id="!veh169!var#3" state="0" edges="gneE0 gneE4 gneE5 gneE3"/>
    <route id="!veh169!var#4" state="0" edges="gneE0 gneE1 gneE2 gneE3"/>
    <route id="!veh169!var#5" state="0" edges="gneE0 gneE4 gneE5 gneE3"/>
    <route id="!veh169!var#6" state="0" edges="gneE0 gneE1 gneE2 gneE3"/>
    <route id="!veh169!var#7" state="0" edges="gneE0 gneE4 gneE5 gneE3"/>
    <route id="!veh170" state="0" edges="gneE0 gneE3"/>
    <route id="!veh170!var#1" state="0" edges="gneE0 gneE4 gneE5 gneE3"/>
    <route id="!veh170!var#2" state="0" edges="gneE0 gneE1 gneE2 gneE3"/>
    <route id="!veh170!var#3" state="0" edges="gneE0 gneE4 gneE5 gneE3"/>
    <route id="!veh170!var#4" state="0" edges="gneE0 gneE1 gneE2 gneE3"/>
    <route id="!veh170!var#5" state="0" edges="gneE0 gneE4 gneE5 gneE3"/>
    <route id="!veh170!var#6" state="0" edges="gneE0 gneE1 gneE2 gneE3"/>
    <route id="!veh170!var#7" state="0" edges="gneE0 gneE4 gneE5 gneE3"/>
    <route id="!veh171" state="0" edges="gneE0 gneE3"/>
    <route id="!veh171!var#1" state="0" edges="gneE0 gneE4 gneE5 gneE3"/>
    <route id="!veh171!var#2" state="0" edges="gneE0 gneE1 gneE2 gneE3"/>
    <route id="!veh171!var#3" state="0" edges="gneE0 gneE4 gneE5 gneE3"/>
    <route id="!veh171!var#4" state="0" edges="gneE0 gneE1 gneE2 gneE3"/>
    <route id="!veh171!var#5" state="0" edges="gneE0 gneE4 gneE5 gneE3"/>
    <route id="!veh171!var#6" state="0" edges="gneE0 gneE1 gneE2 gneE3"/>
    <route id="!veh171!var#7" state="0" edges="gneE0 gneE4 gneE5 gneE3"/>
    <route id="!veh172" state="0" edges="gneE0 gneE3"/>
    <route id="!veh172!var#1" state="0" edges="gneE0 gneE4 gneE5 gneE3"/>
    <route id="!veh172!var#2" state="0" edges="gneE0 gneE1 gneE2 gneE3"/>
    <route id="!veh172!var#3" state="0" edges="gneE0 gneE4 gneE5 gneE3"/>
    <route id="!veh172!var#4" state="0" edges="gneE0 gneE1 gneE2 gneE3"/>
    <route id="!veh172!var#5" state="0" edges="gneE0 gneE4 gneE5 gneE3"/>
    <route id="!veh172!var#6" state="0" edges="gneE0 gneE1 gneE2 gneE3"/>
    <route id="!veh172!var#7" state="0" edges="gneE0 gneE4 gneE5 gneE3"/>
    <route id="!veh173" state="0" edges="gneE0 gneE3"/>
    <route id="!veh173!var#1" state="0" edges="gneE0 gneE4 gneE5 gneE3"/>
    <route id="!veh173!var#2" state="0" edges="gneE0 gneE1 gneE2 gneE3"/>
    <route id="!veh173!var#3" state="0" edges="gneE0 gneE4 gneE5 gneE3"/>
    <route id="!veh173!var#4" state="0" edges="gneE0 gneE1 gneE2 gneE3"/>
    <route id="!veh173!var#5" state="0" edges="gneE0 gneE4 gneE5 gneE3"/>
    <route id="!veh173!var#6" state="0" edges="gneE0 gneE1 gneE2 gneE3"/>
    <route id="!veh173!var#7" state="0" edges="gneE0 gneE4 gneE5 gneE3"/>
    <route id="!veh174" state="0" edges="gneE0 gneE3"/>
    <route id="!veh174!var#1" state="0" edges="gneE0 gneE4 gneE5 gneE3"/>
    <route id="!veh174!var#2" state="0" edges="gneE0 gneE1 gneE2 gneE3"/>
    <route id="!veh174!var#3" state="0" edges="gneE0 gneE4 gneE5 gneE3"/>
    <route id="!veh174!var#4" state="0" edges="gneE0 gneE1 gneE2 gneE3"/>
    <route id="!veh174!var#5" state="0" edges="gneE0 gneE4 gneE5 gneE3"/>
    <route id="!veh174!var#6" state="0" edges="gneE0 gneE1 gneE2 gneE3"/>
    <route id="!veh174!var#7" state="0" edges="gneE0 gneE4 gneE5 gneE3"/>
    <route id="!veh175" state="0" edges="gneE0 gneE3"/>
    <route id="!veh175!var#1" state="0" edges="gneE0 gneE4 gneE5 gneE3"/>
    <route id="!veh175!var#2" state="0" edges="gneE0 gneE1 gneE2 gneE3"/>
    <route id="!veh175!var#3" state="0" edges="gneE0 gneE4 gneE5 gneE3"/>
    <route id="!veh175!var#4" state="0" edges="gneE0 gneE1 gneE2 gneE3"/>