<?xml version="1.0" encoding="UTF-8"?>

<!-- generated on Sat Mar 17 11:44:18 2018 by SUMO Version v0_32_0+0760-bc58d11
<configuration xmlns:xsi="http://www.w3.org/2001/XMLSchema-instance" xsi:noNamespaceSchemaLocation="http://sumo.dlr.de/xsd/sumoConfiguration.xsd">

    <input>
        <net-file value="input_net.net.xml"/>
        <route-files value="input_routes.rou.xml"/>
    </input>

    <output>
        <vehroute-output value="vehroutes.xml"/>
        <save-state.times value="500"/>
        <save-state.files value="state.xml"/>
    </output>

    <report>
        <duration-log.disable value="true"/>
        <no-step-log value="true"/>
    </report>

</configuration>
-->

<routes xmlns:xsi="http://www.w3.org/2001/XMLSchema-instance" xsi:noNamespaceSchemaLocation="http://sumo.dlr.de/xsd/routes_file.xsd">
    <vehicle id="veh1" type="default" depart="1.00" departPos="1.00" arrivalPos="80.00" arrivalSpeed="0.00" arrival="31.00">
        <routeDistribution>
            <route replacedOnEdge="" replacedAtTime="1.00" probability="0" edges="gneE0 gneE3"/>
            <route edges="gneE0 gneE1 gneE2 gneE3"/>
        </routeDistribution>
    </vehicle>

    <vehicle id="veh2" type="default" depart="4.00" departPos="1.00" arrivalPos="80.00" arrivalSpeed="0.00" arrival="34.00">
        <routeDistribution>
            <route replacedOnEdge="" replacedAtTime="2.00" probability="0" edges="gneE0 gneE3"/>
            <route edges="gneE0 gneE1 gneE2 gneE3"/>
        </routeDistribution>
    </vehicle>

    <vehicle id="veh3" type="default" depart="7.00" departPos="1.00" arrivalPos="80.00" arrivalSpeed="0.00" arrival="37.00">
        <routeDistribution>
            <route replacedOnEdge="" replacedAtTime="3.00" probability="0" edges="gneE0 gneE3"/>
            <route edges="gneE0 gneE1 gneE2 gneE3"/>
        </routeDistribution>
    </vehicle>

    <vehicle id="veh4" type="default" depart="10.00" departPos="1.00" arrivalPos="80.00" arrivalSpeed="0.00" arrival="40.00">
        <routeDistribution>
            <route replacedOnEdge="" replacedAtTime="4.00" probability="0" edges="gneE0 gneE3"/>
            <route edges="gneE0 gneE1 gneE2 gneE3"/>
        </routeDistribution>
    </vehicle>

    <vehicle id="veh5" type="default" depart="13.00" departPos="1.00" arrivalPos="80.00" arrivalSpeed="0.00" arrival="42.00">
        <routeDistribution>
            <route replacedOnEdge="" replacedAtTime="5.00" probability="0" edges="gneE0 gneE3"/>
            <route edges="gneE0 gneE1 gneE2 gneE3"/>
        </routeDistribution>
    </vehicle>

    <vehicle id="veh6" type="default" depart="16.00" departPos="1.00" arrivalPos="80.00" arrivalSpeed="0.00" arrival="46.00">
        <routeDistribution>
            <route replacedOnEdge="" replacedAtTime="6.00" probability="0" edges="gneE0 gneE3"/>
            <route edges="gneE0 gneE1 gneE2 gneE3"/>
        </routeDistribution>
    </vehicle>

    <vehicle id="veh7" type="default" depart="19.00" departPos="1.00" arrivalPos="80.00" arrivalSpeed="0.00" arrival="50.00">
        <routeDistribution>
            <route replacedOnEdge="" replacedAtTime="7.00" probability="0" edges="gneE0 gneE3"/>
            <route edges="gneE0 gneE1 gneE2 gneE3"/>
        </routeDistribution>
    </vehicle>

    <vehicle id="veh8" type="default" depart="22.00" departPos="1.00" arrivalPos="80.00" arrivalSpeed="0.00" arrival="52.00">
        <routeDistribution>
            <route replacedOnEdge="" replacedAtTime="8.00" probability="0" edges="gneE0 gneE3"/>
            <route edges="gneE0 gneE1 gneE2 gneE3"/>
        </routeDistribution>
    </vehicle>

    <vehicle id="veh9" type="default" depart="25.00" departPos="1.00" arrivalPos="80.00" arrivalSpeed="0.00" arrival="55.00">
        <routeDistribution>
            <route replacedOnEdge="" replacedAtTime="9.00" probability="0" edges="gneE0 gneE3"/>
            <route edges="gneE0 gneE1 gneE2 gneE3"/>
        </routeDistribution>
    </vehicle>

    <vehicle id="veh10" type="default" depart="28.00" departPos="1.00" arrivalPos="80.00" arrivalSpeed="0.00" arrival="58.00">
        <routeDistribution>
            <route replacedOnEdge="" replacedAtTime="10.00" probability="0" edges="gneE0 gneE3"/>
            <route edges="gneE0 gneE1 gneE2 gneE3"/>
        </routeDistribution>
    </vehicle>

    <vehicle id="veh11" type="default" depart="31.00" departPos="1.00" arrivalPos="80.00" arrivalSpeed="0.00" arrival="62.00">
        <routeDistribution>
            <route replacedOnEdge="" replacedAtTime="11.00" probability="0" edges="gneE0 gneE3"/>
            <route edges="gneE0 gneE1 gneE2 gneE3"/>
        </routeDistribution>
    </vehicle>

    <vehicle id="veh13" type="default" depart="37.00" departPos="1.00" arrivalPos="80.00" arrivalSpeed="0.00" arrival="64.00">
        <routeDistribution>
            <route replacedOnEdge="" replacedAtTime="13.00" probability="0" edges="gneE0 gneE3"/>
            <route edges="gneE0 gneE4 gneE5 gneE3"/>
        </routeDistribution>
    </vehicle>

    <vehicle id="veh14" type="default" depart="40.00" departPos="1.00" arrivalPos="80.00" arrivalSpeed="0.00" arrival="69.00">
        <routeDistribution>
            <route replacedOnEdge="" replacedAtTime="14.00" probability="0" edges="gneE0 gneE3"/>
            <route edges="gneE0 gneE4 gneE5 gneE3"/>
        </routeDistribution>
    </vehicle>

    <vehicle id="veh15" type="default" depart="43.00" departPos="1.00" arrivalPos="80.00" arrivalSpeed="0.00" arrival="73.00">
        <routeDistribution>
            <route replacedOnEdge="" replacedAtTime="15.00" probability="0" edges="gneE0 gneE3"/>
            <route edges="gneE0 gneE4 gneE5 gneE3"/>
        </routeDistribution>
    </vehicle>

    <vehicle id="veh16" type="default" depart="46.00" departPos="1.00" arrivalPos="80.00" arrivalSpeed="0.00" arrival="77.00">
        <routeDistribution>
            <route replacedOnEdge="" replacedAtTime="16.00" probability="0" edges="gneE0 gneE3"/>
            <route edges="gneE0 gneE4 gneE5 gneE3"/>
        </routeDistribution>
    </vehicle>

    <vehicle id="veh17" type="default" depart="49.00" departPos="1.00" arrivalPos="80.00" arrivalSpeed="0.00" arrival="81.00">
        <routeDistribution>
            <route replacedOnEdge="" replacedAtTime="17.00" probability="0" edges="gneE0 gneE3"/>
            <route edges="gneE0 gneE4 gneE5 gneE3"/>
        </routeDistribution>
    </vehicle>

    <vehicle id="veh18" type="default" depart="52.00" departPos="1.00" arrivalPos="80.00" arrivalSpeed="0.00" arrival="86.00">
        <routeDistribution>
            <route replacedOnEdge="" replacedAtTime="18.00" probability="0" edges="gneE0 gneE3"/>
            <route edges="gneE0 gneE4 gneE5 gneE3"/>
        </routeDistribution>
    </vehicle>

    <vehicle id="veh19" type="default" depart="55.00" departPos="1.00" arrivalPos="80.00" arrivalSpeed="0.00" arrival="90.00">
        <routeDistribution>
            <route replacedOnEdge="" replacedAtTime="19.00" probability="0" edges="gneE0 gneE3"/>
            <route edges="gneE0 gneE4 gneE5 gneE3"/>
        </routeDistribution>
    </vehicle>

    <vehicle id="veh20" type="default" depart="58.00" departPos="1.00" arrivalPos="80.00" arrivalSpeed="0.00" arrival="93.00">
        <routeDistribution>
            <route replacedOnEdge="" replacedAtTime="20.00" probability="0" edges="gneE0 gneE3"/>
            <route edges="gneE0 gneE4 gneE5 gneE3"/>
        </routeDistribution>
    </vehicle>

    <vehicle id="veh21" type="default" depart="61.00" departPos="1.00" arrivalPos="80.00" arrivalSpeed="0.00" arrival="96.00">
        <routeDistribution>
            <route replacedOnEdge="" replacedAtTime="21.00" probability="0" edges="gneE0 gneE3"/>
            <route edges="gneE0 gneE4 gneE5 gneE3"/>
        </routeDistribution>
    </vehicle>

    <vehicle id="veh22" type="default" depart="64.00" departPos="1.00" arrivalPos="80.00" arrivalSpeed="0.00" arrival="100.00">
        <routeDistribution>
            <route replacedOnEdge="" replacedAtTime="22.00" probability="0" edges="gneE0 gneE3"/>
            <route edges="gneE0 gneE4 gneE5 gneE3"/>
        </routeDistribution>
    </vehicle>

    <vehicle id="veh23" type="default" depart="67.00" departPos="1.00" arrivalPos="80.00" arrivalSpeed="0.00" arrival="104.00">
        <routeDistribution>
            <route replacedOnEdge="" replacedAtTime="23.00" probability="0" edges="gneE0 gneE3"/>
            <route edges="gneE0 gneE4 gneE5 gneE3"/>
        </routeDistribution>
    </vehicle>

    <vehicle id="veh24" type="default" depart="70.00" departPos="1.00" arrivalPos="80.00" arrivalSpeed="0.00" arrival="108.00">
        <routeDistribution>
            <route replacedOnEdge="" replacedAtTime="24.00" probability="0" edges="gneE0 gneE3"/>
            <route edges="gneE0 gneE4 gneE5 gneE3"/>
        </routeDistribution>
    </vehicle>

    <vehicle id="veh25" type="default" depart="73.00" departPos="1.00" arrivalPos="80.00" arrivalSpeed="0.00" arrival="113.00">
        <routeDistribution>
            <route replacedOnEdge="" replacedAtTime="25.00" probability="0" edges="gneE0 gneE3"/>
            <route edges="gneE0 gneE4 gneE5 gneE3"/>
        </routeDistribution>
    </vehicle>

    <vehicle id="veh26" type="default" depart="76.00" departPos="1.00" arrivalPos="80.00" arrivalSpeed="0.00" arrival="116.00">
        <routeDistribution>
            <route replacedOnEdge="" replacedAtTime="26.00" probability="0" edges="gneE0 gneE3"/>
            <route edges="gneE0 gneE4 gneE5 gneE3"/>
        </routeDistribution>
    </vehicle>

    <vehicle id="veh27" type="default" depart="79.00" departPos="1.00" arrivalPos="80.00" arrivalSpeed="0.00" arrival="121.00">
        <routeDistribution>
            <route replacedOnEdge="" replacedAtTime="27.00" probability="0" edges="gneE0 gneE3"/>
            <route edges="gneE0 gneE4 gneE5 gneE3"/>
        </routeDistribution>
    </vehicle>

    <vehicle id="veh28" type="default" depart="82.00" departPos="1.00" arrivalPos="80.00" arrivalSpeed="0.00" arrival="125.00">
        <routeDistribution>
            <route replacedOnEdge="" replacedAtTime="28.00" probability="0" edges="gneE0 gneE3"/>
            <route edges="gneE0 gneE4 gneE5 gneE3"/>
        </routeDistribution>
    </vehicle>

    <vehicle id="veh29" type="default" depart="85.00" departPos="1.00" arrivalPos="80.00" arrivalSpeed="0.00" arrival="129.00">
        <routeDistribution>
            <route replacedOnEdge="" replacedAtTime="29.00" probability="0" edges="gneE0 gneE3"/>
            <route edges="gneE0 gneE4 gneE5 gneE3"/>
        </routeDistribution>
    </vehicle>

    <vehicle id="veh30" type="default" depart="88.00" departPos="1.00" arrivalPos="80.00" arrivalSpeed="0.00" arrival="133.00">
        <routeDistribution>
            <route replacedOnEdge="" replacedAtTime="30.00" probability="0" edges="gneE0 gneE3"/>
            <route edges="gneE0 gneE4 gneE5 gneE3"/>
        </routeDistribution>
    </vehicle>

    <vehicle id="veh31" type="default" depart="91.00" departPos="1.00" arrivalPos="80.00" arrivalSpeed="0.00" arrival="138.00">
        <routeDistribution>
            <route replacedOnEdge="" replacedAtTime="31.00" probability="0" edges="gneE0 gneE3"/>
            <route edges="gneE0 gneE4 gneE5 gneE3"/>
        </routeDistribution>
    </vehicle>

    <vehicle id="veh12" type="default" depart="34.00" departPos="1.00" arrivalPos="80.00" arrivalSpeed="0.00" arrival="141.00">
        <routeDistribution>
            <route replacedOnEdge="" replacedAtTime="12.00" probability="0" edges="gneE0 gneE3"/>
            <route edges="gneE0 gneE1 gneE2 gneE3"/>
        </routeDistribution>
    </vehicle>

    <vehicle id="veh32" type="default" depart="94.00" departPos="1.00" arrivalPos="80.00" arrivalSpeed="0.00" arrival="144.00">
        <routeDistribution>
            <route replacedOnEdge="" replacedAtTime="32.00" probability="0" edges="gneE0 gneE3"/>
            <route edges="gneE0 gneE4 gneE5 gneE3"/>
        </routeDistribution>
    </vehicle>

    <vehicle id="veh33" type="default" depart="97.00" departPos="1.00" arrivalPos="80.00" arrivalSpeed="0.00" arrival="147.00">
        <routeDistribution>
            <route replacedOnEdge="" replacedAtTime="33.00" probability="0" edges="gneE0 gneE3"/>
            <route edges="gneE0 gneE4 gneE5 gneE3"/>
        </routeDistribution>
    </vehicle>

    <vehicle id="veh34" type="default" depart="100.00" departPos="1.00" arrivalPos="80.00" arrivalSpeed="0.00" arrival="150.00">
        <routeDistribution>
            <route replacedOnEdge="" replacedAtTime="34.00" probability="0" edges="gneE0 gneE3"/>
            <route edges="gneE0 gneE4 gneE5 gneE3"/>
        </routeDistribution>
    </vehicle>

    <vehicle id="veh35" type="default" depart="103.00" departPos="1.00" arrivalPos="80.00" arrivalSpeed="0.00" arrival="154.00">
        <routeDistribution>
            <route replacedOnEdge="" replacedAtTime="35.00" probability="0" edges="gneE0 gneE3"/>
            <route edges="gneE0 gneE4 gneE5 gneE3"/>
        </routeDistribution>
    </vehicle>

    <vehicle id="veh36" type="default" depart="106.00" departPos="1.00" arrivalPos="80.00" arrivalSpeed="0.00" arrival="157.00">
        <routeDistribution>
            <route replacedOnEdge="" replacedAtTime="36.00" probability="0" edges="gneE0 gneE3"/>
            <route edges="gneE0 gneE4 gneE5 gneE3"/>
        </routeDistribution>
    </vehicle>

    <vehicle id="veh37" type="default" depart="109.00" departPos="1.00" arrivalPos="80.00" arrivalSpeed="0.00" arrival="160.00">
        <routeDistribution>
            <route replacedOnEdge="" replacedAtTime="37.00" probability="0" edges="gneE0 gneE3"/>
            <route edges="gneE0 gneE4 gneE5 gneE3"/>
        </routeDistribution>
    </vehicle>

    <vehicle id="veh38" type="default" depart="112.00" departPos="1.00" arrivalPos="80.00" arrivalSpeed="0.00" arrival="164.00">
        <routeDistribution>
            <route replacedOnEdge="" replacedAtTime="38.00" probability="0" edges="gneE0 gneE3"/>
            <route edges="gneE0 gneE4 gneE5 gneE3"/>
        </routeDistribution>
    </vehicle>

    <vehicle id="veh39" type="default" depart="115.00" departPos="1.00" arrivalPos="80.00" arrivalSpeed="0.00" arrival="167.00">
        <routeDistribution>
            <route replacedOnEdge="" replacedAtTime="39.00" probability="0" edges="gneE0 gneE3"/>
            <route edges="gneE0 gneE4 gneE5 gneE3"/>
        </routeDistribution>
    </vehicle>

    <vehicle id="veh40" type="default" depart="118.00" departPos="1.00" arrivalPos="80.00" arrivalSpeed="0.00" arrival="170.00">
        <routeDistribution>
            <route replacedOnEdge="" replacedAtTime="40.00" probability="0" edges="gneE0 gneE3"/>
            <route edges="gneE0 gneE4 gneE5 gneE3"/>
        </routeDistribution>
    </vehicle>

    <vehicle id="veh41" type="default" depart="121.00" departPos="1.00" arrivalPos="80.00" arrivalSpeed="0.00" arrival="174.00">
        <routeDistribution>
            <route replacedOnEdge="" replacedAtTime="41.00" probability="0" edges="gneE0 gneE3"/>
            <route edges="gneE0 gneE4 gneE5 gneE3"/>
        </routeDistribution>
    </vehicle>

    <vehicle id="veh42" type="default" depart="124.00" departPos="1.00" arrivalPos="80.00" arrivalSpeed="0.00" arrival="179.00">
        <routeDistribution>
            <route replacedOnEdge="" replacedAtTime="42.00" probability="0" edges="gneE0 gneE3"/>
            <route edges="gneE0 gneE4 gneE5 gneE3"/>
        </routeDistribution>
    </vehicle>

    <vehicle id="veh43" type="default" depart="127.00" departPos="1.00" arrivalPos="80.00" arrivalSpeed="0.00" arrival="183.00">
        <routeDistribution>
            <route replacedOnEdge="" replacedAtTime="43.00" probability="0" edges="gneE0 gneE3"/>
            <route edges="gneE0 gneE4 gneE5 gneE3"/>
        </routeDistribution>
    </vehicle>

    <vehicle id="veh44" type="default" depart="130.00" departPos="1.00" arrivalPos="80.00" arrivalSpeed="0.00" arrival="186.00">
        <routeDistribution>
            <route replacedOnEdge="" replacedAtTime="44.00" probability="0" edges="gneE0 gneE3"/>
            <route edges="gneE0 gneE4 gneE5 gneE3"/>
        </routeDistribution>
    </vehicle>

    <vehicle id="veh45" type="default" depart="133.00" departPos="1.00" arrivalPos="80.00" arrivalSpeed="0.00" arrival="189.00">
        <routeDistribution>
            <route replacedOnEdge="" replacedAtTime="45.00" probability="0" edges="gneE0 gneE3"/>
            <route edges="gneE0 gneE4 gneE5 gneE3"/>
        </routeDistribution>
    </vehicle>

    <vehicle id="veh46" type="default" depart="136.00" departPos="1.00" arrivalPos="80.00" arrivalSpeed="0.00" arrival="192.00">
        <routeDistribution>
            <route replacedOnEdge="" replacedAtTime="46.00" probability="0" edges="gneE0 gneE3"/>
            <route edges="gneE0 gneE4 gneE5 gneE3"/>
        </routeDistribution>
    </vehicle>

    <vehicle id="veh47" type="default" depart="139.00" departPos="1.00" arrivalPos="80.00" arrivalSpeed="0.00" arrival="195.00">
        <routeDistribution>
            <route replacedOnEdge="" replacedAtTime="47.00" probability="0" edges="gneE0 gneE3"/>
            <route edges="gneE0 gneE4 gneE5 gneE3"/>
        </routeDistribution>
    </vehicle>

    <vehicle id="veh48" type="default" depart="142.00" departPos="1.00" arrivalPos="80.00" arrivalSpeed="0.00" arrival="199.00">
        <routeDistribution>
            <route replacedOnEdge="" replacedAtTime="48.00" probability="0" edges="gneE0 gneE3"/>
            <route edges="gneE0 gneE4 gneE5 gneE3"/>
        </routeDistribution>
    </vehicle>

    <vehicle id="veh49" type="default" depart="145.00" departPos="1.00" arrivalPos="80.00" arrivalSpeed="0.00" arrival="203.00">
        <routeDistribution>
            <route replacedOnEdge="" replacedAtTime="49.00" probability="0" edges="gneE0 gneE3"/>
            <route edges="gneE0 gneE4 gneE5 gneE3"/>
        </routeDistribution>
    </vehicle>

    <vehicle id="veh50" type="default" depart="148.00" departPos="1.00" arrivalPos="80.00" arrivalSpeed="0.00" arrival="207.00">
        <routeDistribution>
            <route replacedOnEdge="" replacedAtTime="50.00" probability="0" edges="gneE0 gneE3"/>
            <route edges="gneE0 gneE4 gneE5 gneE3"/>
        </routeDistribution>
    </vehicle>

    <vehicle id="veh51" type="default" depart="151.00" departPos="1.00" arrivalPos="80.00" arrivalSpeed="0.00" arrival="211.00">
        <routeDistribution>
            <route replacedOnEdge="" replacedAtTime="51.00" probability="0" edges="gneE0 gneE3"/>
            <route edges="gneE0 gneE4 gneE5 gneE3"/>
        </routeDistribution>
    </vehicle>

    <vehicle id="veh52" type="default" depart="154.00" departPos="1.00" arrivalPos="80.00" arrivalSpeed="0.00" arrival="216.00">
        <routeDistribution>
            <route replacedOnEdge="" replacedAtTime="52.00" probability="0" edges="gneE0 gneE3"/>
            <route edges="gneE0 gneE4 gneE5 gneE3"/>
        </routeDistribution>
    </vehicle>

    <vehicle id="veh53" type="default" depart="157.00" departPos="1.00" arrivalPos="80.00" arrivalSpeed="0.00" arrival="219.00">
        <routeDistribution>
            <route replacedOnEdge="" replacedAtTime="53.00" probability="0" edges="gneE0 gneE3"/>
            <route edges="gneE0 gneE4 gneE5 gneE3"/>
        </routeDistribution>
    </vehicle>

    <vehicle id="veh54" type="default" depart="160.00" departPos="1.00" arrivalPos="80.00" arrivalSpeed="0.00" arrival="222.00">
        <routeDistribution>
            <route replacedOnEdge="" replacedAtTime="54.00" probability="0" edges="gneE0 gneE3"/>
            <route replacedOnEdge="" replacedAtTime="114.00" probability="0" edges="gneE0 gneE4 gneE5 gneE3"/>
            <route edges="gneE0 gneE1 gneE2 gneE3"/>
        </routeDistribution>
    </vehicle>

    <vehicle id="veh55" type="default" depart="163.00" departPos="1.00" arrivalPos="80.00" arrivalSpeed="0.00" arrival="225.00">
        <routeDistribution>
            <route replacedOnEdge="" replacedAtTime="55.00" probability="0" edges="gneE0 gneE3"/>
            <route replacedOnEdge="" replacedAtTime="115.00" probability="0" edges="gneE0 gneE4 gneE5 gneE3"/>
            <route edges="gneE0 gneE1 gneE2 gneE3"/>
        </routeDistribution>
    </vehicle>

    <vehicle id="veh56" type="default" depart="166.00" departPos="1.00" arrivalPos="80.00" arrivalSpeed="0.00" arrival="228.00">
        <routeDistribution>
            <route replacedOnEdge="" replacedAtTime="56.00" probability="0" edges="gneE0 gneE3"/>
            <route replacedOnEdge="" replacedAtTime="116.00" probability="0" edges="gneE0 gneE4 gneE5 gneE3"/>
            <route edges="gneE0 gneE1 gneE2 gneE3"/>
        </routeDistribution>
    </vehicle>

    <vehicle id="veh57" type="default" depart="169.00" departPos="1.00" arrivalPos="80.00" arrivalSpeed="0.00" arrival="231.00">
        <routeDistribution>
            <route replacedOnEdge="" replacedAtTime="57.00" probability="0" edges="gneE0 gneE3"/>
            <route replacedOnEdge="" replacedAtTime="117.00" probability="0" edges="gneE0 gneE4 gneE5 gneE3"/>
            <route edges="gneE0 gneE1 gneE2 gneE3"/>
        </routeDistribution>
    </vehicle>

    <vehicle id="veh58" type="default" depart="172.00" departPos="1.00" arrivalPos="80.00" arrivalSpeed="0.00" arrival="234.00">
        <routeDistribution>
            <route replacedOnEdge="" replacedAtTime="58.00" probability="0" edges="gneE0 gneE3"/>
            <route replacedOnEdge="" replacedAtTime="118.00" probability="0" edges="gneE0 gneE4 gneE5 gneE3"/>
            <route edges="gneE0 gneE1 gneE2 gneE3"/>
        </routeDistribution>
    </vehicle>

    <vehicle id="veh59" type="default" depart="175.00" departPos="1.00" arrivalPos="80.00" arrivalSpeed="0.00" arrival="238.00">
        <routeDistribution>
            <route replacedOnEdge="" replacedAtTime="59.00" probability="0" edges="gneE0 gneE3"/>
            <route replacedOnEdge="" replacedAtTime="119.00" probability="0" edges="gneE0 gneE4 gneE5 gneE3"/>
            <route edges="gneE0 gneE1 gneE2 gneE3"/>
        </routeDistribution>
    </vehicle>

    <vehicle id="veh66" type="default" depart="196.00" departPos="1.00" arrivalPos="80.00" arrivalSpeed="0.00" arrival="242.00">
        <routeDistribution>
            <route replacedOnEdge="" replacedAtTime="66.00" probability="0" edges="gneE0 gneE3"/>
            <route replacedOnEdge="" replacedAtTime="126.00" probability="0" edges="gneE0 gneE4 gneE5 gneE3"/>
            <route replacedOnEdge="" replacedAtTime="186.00" probability="0" edges="gneE0 gneE1 gneE2 gneE3"/>
            <route edges="gneE0 gneE4 gneE5 gneE3"/>
        </routeDistribution>
    </vehicle>

    <vehicle id="veh67" type="default" depart="199.00" departPos="1.00" arrivalPos="80.00" arrivalSpeed="0.00" arrival="247.00">
        <routeDistribution>
            <route replacedOnEdge="" replacedAtTime="67.00" probability="0" edges="gneE0 gneE3"/>
            <route replacedOnEdge="" replacedAtTime="127.00" probability="0" edges="gneE0 gneE4 gneE5 gneE3"/>
            <route replacedOnEdge="" replacedAtTime="187.00" probability="0" edges="gneE0 gneE1 gneE2 gneE3"/>
            <route edges="gneE0 gneE4 gneE5 gneE3"/>
        </routeDistribution>
    </vehicle>

    <vehicle id="veh68" type="default" depart="202.00" departPos="1.00" arrivalPos="80.00" arrivalSpeed="0.00" arrival="251.00">
        <routeDistribution>
            <route replacedOnEdge="" replacedAtTime="68.00" probability="0" edges="gneE0 gneE3"/>
            <route replacedOnEdge="" replacedAtTime="128.00" probability="0" edges="gneE0 gneE4 gneE5 gneE3"/>
            <route replacedOnEdge="" replacedAtTime="188.00" probability="0" edges="gneE0 gneE1 gneE2 gneE3"/>
            <route edges="gneE0 gneE4 gneE5 gneE3"/>
        </routeDistribution>
    </vehicle>

    <vehicle id="veh69" type="default" depart="206.00" departPos="1.00" arrivalPos="80.00" arrivalSpeed="0.00" arrival="255.00">
        <routeDistribution>
            <route replacedOnEdge="" replacedAtTime="69.00" probability="0" edges="gneE0 gneE3"/>
            <route replacedOnEdge="" replacedAtTime="129.00" probability="0" edges="gneE0 gneE4 gneE5 gneE3"/>
            <route replacedOnEdge="" replacedAtTime="189.00" probability="0" edges="gneE0 gneE1 gneE2 gneE3"/>
            <route edges="gneE0 gneE4 gneE5 gneE3"/>
        </routeDistribution>
    </vehicle>

    <vehicle id="veh70" type="default" depart="209.00" departPos="1.00" arrivalPos="80.00" arrivalSpeed="0.00" arrival="258.00">
        <routeDistribution>
            <route replacedOnEdge="" replacedAtTime="70.00" probability="0" edges="gneE0 gneE3"/>
            <route replacedOnEdge="" replacedAtTime="130.00" probability="0" edges="gneE0 gneE4 gneE5 gneE3"/>
            <route replacedOnEdge="" replacedAtTime="190.00" probability="0" edges="gneE0 gneE1 gneE2 gneE3"/>
            <route edges="gneE0 gneE4 gneE5 gneE3"/>
        </routeDistribution>
    </vehicle>

    <vehicle id="veh71" type="default" depart="212.00" departPos="1.00" arrivalPos="80.00" arrivalSpeed="0.00" arrival="261.00">
        <routeDistribution>
            <route replacedOnEdge="" replacedAtTime="71.00" probability="0" edges="gneE0 gneE3"/>
            <route replacedOnEdge="" replacedAtTime="131.00" probability="0" edges="gneE0 gneE4 gneE5 gneE3"/>
            <route replacedOnEdge="" replacedAtTime="191.00" probability="0" edges="gneE0 gneE1 gneE2 gneE3"/>
            <route edges="gneE0 gneE4 gneE5 gneE3"/>
        </routeDistribution>
    </vehicle>

    <vehicle id="veh72" type="default" depart="215.00" departPos="1.00" arrivalPos="80.00" arrivalSpeed="0.00" arrival="263.00">
        <routeDistribution>
            <route replacedOnEdge="" replacedAtTime="72.00" probability="0" edges="gneE0 gneE3"/>
            <route replacedOnEdge="" replacedAtTime="132.00" probability="0" edges="gneE0 gneE4 gneE5 gneE3"/>
            <route replacedOnEdge="" replacedAtTime="192.00" probability="0" edges="gneE0 gneE1 gneE2 gneE3"/>
            <route edges="gneE0 gneE4 gneE5 gneE3"/>
        </routeDistribution>
    </vehicle>

    <vehicle id="veh73" type="default" depart="218.00" departPos="1.00" arrivalPos="80.00" arrivalSpeed="0.00" arrival="267.00">
        <routeDistribution>
            <route replacedOnEdge="" replacedAtTime="73.00" probability="0" edges="gneE0 gneE3"/>
            <route replacedOnEdge="" replacedAtTime="133.00" probability="0" edges="gneE0 gneE4 gneE5 gneE3"/>
            <route replacedOnEdge="" replacedAtTime="193.00" probability="0" edges="gneE0 gneE1 gneE2 gneE3"/>
            <route edges="gneE0 gneE4 gneE5 gneE3"/>
        </routeDistribution>
    </vehicle>

    <vehicle id="veh74" type="default" depart="221.00" departPos="1.00" arrivalPos="80.00" arrivalSpeed="0.00" arrival="270.00">
        <routeDistribution>
            <route replacedOnEdge="" replacedAtTime="74.00" probability="0" edges="gneE0 gneE3"/>
            <route replacedOnEdge="" replacedAtTime="134.00" probability="0" edges="gneE0 gneE4 gneE5 gneE3"/>
            <route replacedOnEdge="" replacedAtTime="194.00" probability="0" edges="gneE0 gneE1 gneE2 gneE3"/>
            <route edges="gneE0 gneE4 gneE5 gneE3"/>
        </routeDistribution>
    </vehicle>

    <vehicle id="veh75" type="default" depart="224.00" departPos="1.00" arrivalPos="80.00" arrivalSpeed="0.00" arrival="273.00">
        <routeDistribution>
            <route replacedOnEdge="" replacedAtTime="75.00" probability="0" edges="gneE0 gneE3"/>
            <route replacedOnEdge="" replacedAtTime="135.00" probability="0" edges="gneE0 gneE4 gneE5 gneE3"/>
            <route replacedOnEdge="" replacedAtTime="195.00" probability="0" edges="gneE0 gneE1 gneE2 gneE3"/>
            <route edges="gneE0 gneE4 gneE5 gneE3"/>
        </routeDistribution>
    </vehicle>

    <vehicle id="veh76" type="default" depart="227.00" departPos="1.00" arrivalPos="80.00" arrivalSpeed="0.00" arrival="276.00">
        <routeDistribution>
            <route replacedOnEdge="" replacedAtTime="76.00" probability="0" edges="gneE0 gneE3"/>
            <route replacedOnEdge="" replacedAtTime="136.00" probability="0" edges="gneE0 gneE4 gneE5 gneE3"/>
            <route replacedOnEdge="" replacedAtTime="196.00" probability="0" edges="gneE0 gneE1 gneE2 gneE3"/>
            <route edges="gneE0 gneE4 gneE5 gneE3"/>
        </routeDistribution>
    </vehicle>

    <vehicle id="veh77" type="default" depart="230.00" departPos="1.00" arrivalPos="80.00" arrivalSpeed="0.00" arrival="280.00">
        <routeDistribution>
            <route replacedOnEdge="" replacedAtTime="77.00" probability="0" edges="gneE0 gneE3"/>
            <route replacedOnEdge="" replacedAtTime="137.00" probability="0" edges="gneE0 gneE4 gneE5 gneE3"/>
            <route replacedOnEdge="" replacedAtTime="197.00" probability="0" edges="gneE0 gneE1 gneE2 gneE3"/>
            <route edges="gneE0 gneE4 gneE5 gneE3"/>
        </routeDistribution>
    </vehicle>

    <vehicle id="veh78" type="default" depart="233.00" departPos="1.00" arrivalPos="80.00" arrivalSpeed="0.00" arrival="284.00">
        <routeDistribution>
            <route replacedOnEdge="" replacedAtTime="78.00" probability="0" edges="gneE0 gneE3"/>
            <route replacedOnEdge="" replacedAtTime="138.00" probability="0" edges="gneE0 gneE4 gneE5 gneE3"/>
            <route replacedOnEdge="" replacedAtTime="198.00" probability="0" edges="gneE0 gneE1 gneE2 gneE3"/>
            <route edges="gneE0 gneE4 gneE5 gneE3"/>
        </routeDistribution>
    </vehicle>

    <vehicle id="veh79" type="default" depart="236.00" departPos="1.00" arrivalPos="80.00" arrivalSpeed="0.00" arrival="287.00">
        <routeDistribution>
            <route replacedOnEdge="" replacedAtTime="79.00" probability="0" edges="gneE0 gneE3"/>