<?xml version="1.0" encoding="UTF-8"?>

<!-- generated on Mon May 27 08:33:33 2019 by Eclipse SUMO Version v1_2_0+0252-83989c2
<configuration xmlns:xsi="http://www.w3.org/2001/XMLSchema-instance" xsi:noNamespaceSchemaLocation="http://sumo.dlr.de/xsd/sumoConfiguration.xsd">

    <input>
        <net-file value="input_net.net.xml"/>
        <load-state value="state.xml"/>
    </input>

    <output>
        <vehroute-output value="vehroutes2.xml"/>
    </output>

    <time>
        <begin value="500"/>
    </time>

    <report>
        <duration-log.disable value="true"/>
        <no-step-log value="true"/>
    </report>

</configuration>
-->

<routes xmlns:xsi="http://www.w3.org/2001/XMLSchema-instance" xsi:noNamespaceSchemaLocation="http://sumo.dlr.de/xsd/routes_file.xsd">
    <vehicle id="veh129" type="default" depart="412.00" departPos="1.00" arrivalPos="80.00" arrivalSpeed="0.00" arrival="500.00">
        <routeDistribution>
            <route replacedOnEdge="" reason="device.rerouting" replacedAtTime="129.00" probability="0" edges="gneE0 gneE3"/>
            <route replacedOnEdge="" reason="device.rerouting" replacedAtTime="189.00" probability="0" edges="gneE0 gneE4 gneE5 gneE3"/>
            <route replacedOnEdge="" reason="device.rerouting" replacedAtTime="309.00" probability="0" edges="gneE0 gneE1 gneE2 gneE3"/>
            <route edges="gneE0 gneE4 gneE5 gneE3"/>
        </routeDistribution>
    </vehicle>

    <vehicle id="veh130" type="default" depart="415.00" departPos="1.00" arrivalPos="80.00" arrivalSpeed="0.00" arrival="504.00">
        <routeDistribution>
            <route replacedOnEdge="" reason="device.rerouting" replacedAtTime="130.00" probability="0" edges="gneE0 gneE3"/>
            <route replacedOnEdge="" reason="device.rerouting" replacedAtTime="190.00" probability="0" edges="gneE0 gneE4 gneE5 gneE3"/>
            <route replacedOnEdge="" reason="device.rerouting" replacedAtTime="310.00" probability="0" edges="gneE0 gneE1 gneE2 gneE3"/>
            <route edges="gneE0 gneE4 gneE5 gneE3"/>
        </routeDistribution>
    </vehicle>

    <vehicle id="veh131" type="default" depart="418.00" departPos="1.00" arrivalPos="80.00" arrivalSpeed="0.00" arrival="509.00">
        <routeDistribution>
            <route replacedOnEdge="" reason="device.rerouting" replacedAtTime="131.00" probability="0" edges="gneE0 gneE3"/>
            <route replacedOnEdge="" reason="device.rerouting" replacedAtTime="191.00" probability="0" edges="gneE0 gneE4 gneE5 gneE3"/>
            <route replacedOnEdge="" reason="device.rerouting" replacedAtTime="311.00" probability="0" edges="gneE0 gneE1 gneE2 gneE3"/>
            <route edges="gneE0 gneE4 gneE5 gneE3"/>
        </routeDistribution>
    </vehicle>

    <vehicle id="veh132" type="default" depart="421.00" departPos="1.00" arrivalPos="80.00" arrivalSpeed="0.00" arrival="512.00">
        <routeDistribution>
            <route replacedOnEdge="" reason="device.rerouting" replacedAtTime="132.00" probability="0" edges="gneE0 gneE3"/>
            <route replacedOnEdge="" reason="device.rerouting" replacedAtTime="192.00" probability="0" edges="gneE0 gneE4 gneE5 gneE3"/>
            <route replacedOnEdge="" reason="device.rerouting" replacedAtTime="312.00" probability="0" edges="gneE0 gneE1 gneE2 gneE3"/>
            <route edges="gneE0 gneE4 gneE5 gneE3"/>
        </routeDistribution>
    </vehicle>

    <vehicle id="veh133" type="default" depart="424.00" departPos="1.00" arrivalPos="80.00" arrivalSpeed="0.00" arrival="516.00">
        <routeDistribution>
            <route replacedOnEdge="" reason="device.rerouting" replacedAtTime="133.00" probability="0" edges="gneE0 gneE3"/>
            <route replacedOnEdge="" reason="device.rerouting" replacedAtTime="193.00" probability="0" edges="gneE0 gneE4 gneE5 gneE3"/>
            <route replacedOnEdge="" reason="device.rerouting" replacedAtTime="313.00" probability="0" edges="gneE0 gneE1 gneE2 gneE3"/>
            <route edges="gneE0 gneE4 gneE5 gneE3"/>
        </routeDistribution>
    </vehicle>

    <vehicle id="veh134" type="default" depart="427.00" departPos="1.00" arrivalPos="80.00" arrivalSpeed="0.00" arrival="520.00">
        <routeDistribution>
            <route replacedOnEdge="" reason="device.rerouting" replacedAtTime="134.00" probability="0" edges="gneE0 gneE3"/>
            <route replacedOnEdge="" reason="device.rerouting" replacedAtTime="194.00" probability="0" edges="gneE0 gneE4 gneE5 gneE3"/>
            <route replacedOnEdge="" reason="device.rerouting" replacedAtTime="314.00" probability="0" edges="gneE0 gneE1 gneE2 gneE3"/>
            <route edges="gneE0 gneE4 gneE5 gneE3"/>
        </routeDistribution>
    </vehicle>

    <vehicle id="veh135" type="default" depart="430.00" departPos="1.00" arrivalPos="80.00" arrivalSpeed="0.00" arrival="523.00">
        <routeDistribution>
            <route replacedOnEdge="" reason="device.rerouting" replacedAtTime="135.00" probability="0" edges="gneE0 gneE3"/>
            <route replacedOnEdge="" reason="device.rerouting" replacedAtTime="195.00" probability="0" edges="gneE0 gneE4 gneE5 gneE3"/>
            <route replacedOnEdge="" reason="device.rerouting" replacedAtTime="315.00" probability="0" edges="gneE0 gneE1 gneE2 gneE3"/>
            <route edges="gneE0 gneE4 gneE5 gneE3"/>
        </routeDistribution>
    </vehicle>

    <vehicle id="veh95" type="default" depart="292.00" departPos="1.00" arrivalPos="80.00" arrivalSpeed="0.00" arrival="528.00">
        <routeDistribution>
            <route replacedOnEdge="" reason="device.rerouting" replacedAtTime="95.00" probability="0" edges="gneE0 gneE3"/>
            <route replacedOnEdge="" reason="device.rerouting" replacedAtTime="155.00" probability="0" edges="gneE0 gneE4 gneE5 gneE3"/>
            <route edges="gneE0 gneE1 gneE2 gneE3"/>
        </routeDistribution>
    </vehicle>

    <vehicle id="veh136" type="default" depart="433.00" departPos="1.00" arrivalPos="80.00" arrivalSpeed="0.00" arrival="531.00">
        <routeDistribution>
            <route replacedOnEdge="" reason="device.rerouting" replacedAtTime="136.00" probability="0" edges="gneE0 gneE3"/>
            <route replacedOnEdge="" reason="device.rerouting" replacedAtTime="196.00" probability="0" edges="gneE0 gneE4 gneE5 gneE3"/>
            <route replacedOnEdge="" reason="device.rerouting" replacedAtTime="316.00" probability="0" edges="gneE0 gneE1 gneE2 gneE3"/>
            <route edges="gneE0 gneE4 gneE5 gneE3"/>
        </routeDistribution>
    </vehicle>

    <vehicle id="veh137" type="default" depart="436.00" departPos="1.00" arrivalPos="80.00" arrivalSpeed="0.00" arrival="536.00">
        <routeDistribution>
            <route replacedOnEdge="" reason="device.rerouting" replacedAtTime="137.00" probability="0" edges="gneE0 gneE3"/>
            <route replacedOnEdge="" reason="device.rerouting" replacedAtTime="197.00" probability="0" edges="gneE0 gneE4 gneE5 gneE3"/>
            <route replacedOnEdge="" reason="device.rerouting" replacedAtTime="317.00" probability="0" edges="gneE0 gneE1 gneE2 gneE3"/>
            <route edges="gneE0 gneE4 gneE5 gneE3"/>
        </routeDistribution>
    </vehicle>

    <vehicle id="veh138" type="default" depart="439.00" departPos="1.00" arrivalPos="80.00" arrivalSpeed="0.00" arrival="541.00">
        <routeDistribution>
            <route replacedOnEdge="" reason="device.rerouting" replacedAtTime="138.00" probability="0" edges="gneE0 gneE3"/>
            <route replacedOnEdge="" reason="device.rerouting" replacedAtTime="198.00" probability="0" edges="gneE0 gneE4 gneE5 gneE3"/>
            <route replacedOnEdge="" reason="device.rerouting" replacedAtTime="318.00" probability="0" edges="gneE0 gneE1 gneE2 gneE3"/>
            <route edges="gneE0 gneE4 gneE5 gneE3"/>
        </routeDistribution>
    </vehicle>

    <vehicle id="veh139" type="default" depart="442.00" departPos="1.00" arrivalPos="80.00" arrivalSpeed="0.00" arrival="546.00">
        <routeDistribution>
            <route replacedOnEdge="" reason="device.rerouting" replacedAtTime="139.00" probability="0" edges="gneE0 gneE3"/>
            <route replacedOnEdge="" reason="device.rerouting" replacedAtTime="199.00" probability="0" edges="gneE0 gneE4 gneE5 gneE3"/>
            <route replacedOnEdge="" reason="device.rerouting" replacedAtTime="319.00" probability="0" edges="gneE0 gneE1 gneE2 gneE3"/>
            <route edges="gneE0 gneE4 gneE5 gneE3"/>
        </routeDistribution>
    </vehicle>

    <vehicle id="veh140" type="default" depart="445.00" departPos="1.00" arrivalPos="80.00" arrivalSpeed="0.00" arrival="549.00">
        <routeDistribution>
            <route replacedOnEdge="" reason="device.rerouting" replacedAtTime="140.00" probability="0" edges="gneE0 gneE3"/>
            <route replacedOnEdge="" reason="device.rerouting" replacedAtTime="200.00" probability="0" edges="gneE0 gneE4 gneE5 gneE3"/>
            <route replacedOnEdge="" reason="device.rerouting" replacedAtTime="320.00" probability="0" edges="gneE0 gneE1 gneE2 gneE3"/>
            <route edges="gneE0 gneE4 gneE5 gneE3"/>
        </routeDistribution>
    </vehicle>

    <vehicle id="veh141" type="default" depart="448.00" departPos="1.00" arrivalPos="80.00" arrivalSpeed="0.00" arrival="551.00">
        <routeDistribution>
            <route replacedOnEdge="" reason="device.rerouting" replacedAtTime="141.00" probability="0" edges="gneE0 gneE3"/>
            <route replacedOnEdge="" reason="device.rerouting" replacedAtTime="201.00" probability="0" edges="gneE0 gneE4 gneE5 gneE3"/>
            <route replacedOnEdge="" reason="device.rerouting" replacedAtTime="321.00" probability="0" edges="gneE0 gneE1 gneE2 gneE3"/>
            <route edges="gneE0 gneE4 gneE5 gneE3"/>
        </routeDistribution>
    </vehicle>

    <vehicle id="veh142" type="default" depart="452.00" departPos="1.00" arrivalPos="80.00" arrivalSpeed="0.00" arrival="553.00">
        <routeDistribution>
            <route replacedOnEdge="" reason="device.rerouting" replacedAtTime="142.00" probability="0" edges="gneE0 gneE3"/>
            <route replacedOnEdge="" reason="device.rerouting" replacedAtTime="202.00" probability="0" edges="gneE0 gneE4 gneE5 gneE3"/>
            <route replacedOnEdge="" reason="device.rerouting" replacedAtTime="322.00" probability="0" edges="gneE0 gneE1 gneE2 gneE3"/>
            <route edges="gneE0 gneE4 gneE5 gneE3"/>
        </routeDistribution>
    </vehicle>

    <vehicle id="veh143" type="default" depart="455.00" departPos="1.00" arrivalPos="80.00" arrivalSpeed="0.00" arrival="557.00">
        <routeDistribution>
            <route replacedOnEdge="" reason="device.rerouting" replacedAtTime="143.00" probability="0" edges="gneE0 gneE3"/>
            <route replacedOnEdge="" reason="device.rerouting" replacedAtTime="203.00" probability="0" edges="gneE0 gneE4 gneE5 gneE3"/>
            <route replacedOnEdge="" reason="device.rerouting" replacedAtTime="323.00" probability="0" edges="gneE0 gneE1 gneE2 gneE3"/>
            <route edges="gneE0 gneE4 gneE5 gneE3"/>
        </routeDistribution>
    </vehicle>

    <vehicle id="veh144" type="default" depart="458.00" departPos="1.00" arrivalPos="80.00" arrivalSpeed="0.00" arrival="562.00">
        <routeDistribution>
            <route replacedOnEdge="" reason="device.rerouting" replacedAtTime="144.00" probability="0" edges="gneE0 gneE3"/>
            <route replacedOnEdge="" reason="device.rerouting" replacedAtTime="204.00" probability="0" edges="gneE0 gneE4 gneE5 gneE3"/>
            <route replacedOnEdge="" reason="device.rerouting" replacedAtTime="324.00" probability="0" edges="gneE0 gneE1 gneE2 gneE3"/>
            <route edges="gneE0 gneE4 gneE5 gneE3"/>
        </routeDistribution>
    </vehicle>

    <vehicle id="veh145" type="default" depart="461.00" departPos="1.00" arrivalPos="80.00" arrivalSpeed="0.00" arrival="566.00">
        <routeDistribution>
            <route replacedOnEdge="" reason="device.rerouting" replacedAtTime="145.00" probability="0" edges="gneE0 gneE3"/>
            <route replacedOnEdge="" reason="device.rerouting" replacedAtTime="205.00" probability="0" edges="gneE0 gneE4 gneE5 gneE3"/>
            <route replacedOnEdge="" reason="device.rerouting" replacedAtTime="325.00" probability="0" edges="gneE0 gneE1 gneE2 gneE3"/>
            <route edges="gneE0 gneE4 gneE5 gneE3"/>
        </routeDistribution>
    </vehicle>

    <vehicle id="veh146" type="default" depart="464.00" departPos="1.00" arrivalPos="80.00" arrivalSpeed="0.00" arrival="570.00">
        <routeDistribution>
            <route replacedOnEdge="" reason="device.rerouting" replacedAtTime="146.00" probability="0" edges="gneE0 gneE3"/>
            <route replacedOnEdge="" reason="device.rerouting" replacedAtTime="206.00" probability="0" edges="gneE0 gneE4 gneE5 gneE3"/>
            <route replacedOnEdge="" reason="device.rerouting" replacedAtTime="326.00" probability="0" edges="gneE0 gneE1 gneE2 gneE3"/>
            <route edges="gneE0 gneE4 gneE5 gneE3"/>
        </routeDistribution>
    </vehicle>

    <vehicle id="veh147" type="default" depart="468.00" departPos="1.00" arrivalPos="80.00" arrivalSpeed="0.00" arrival="574.00">
        <routeDistribution>
            <route replacedOnEdge="" reason="device.rerouting" replacedAtTime="147.00" probability="0" edges="gneE0 gneE3"/>
            <route replacedOnEdge="" reason="device.rerouting" replacedAtTime="207.00" probability="0" edges="gneE0 gneE4 gneE5 gneE3"/>
            <route replacedOnEdge="" reason="device.rerouting" replacedAtTime="327.00" probability="0" edges="gneE0 gneE1 gneE2 gneE3"/>
            <route edges="gneE0 gneE4 gneE5 gneE3"/>
        </routeDistribution>
    </vehicle>

    <vehicle id="veh148" type="default" depart="472.00" departPos="1.00" arrivalPos="80.00" arrivalSpeed="0.00" arrival="578.00">
        <routeDistribution>
            <route replacedOnEdge="" reason="device.rerouting" replacedAtTime="148.00" probability="0" edges="gneE0 gneE3"/>
            <route replacedOnEdge="" reason="device.rerouting" replacedAtTime="208.00" probability="0" edges="gneE0 gneE4 gneE5 gneE3"/>
            <route replacedOnEdge="" reason="device.rerouting" replacedAtTime="328.00" probability="0" edges="gneE0 gneE1 gneE2 gneE3"/>
            <route edges="gneE0 gneE4 gneE5 gneE3"/>
        </routeDistribution>
    </vehicle>

    <vehicle id="veh149" type="default" depart="477.00" departPos="1.00" arrivalPos="80.00" arrivalSpeed="0.00" arrival="581.00">
        <routeDistribution>
            <route replacedOnEdge="" reason="device.rerouting" replacedAtTime="149.00" probability="0" edges="gneE0 gneE3"/>
            <route replacedOnEdge="" reason="device.rerouting" replacedAtTime="209.00" probability="0" edges="gneE0 gneE4 gneE5 gneE3"/>
            <route replacedOnEdge="" reason="device.rerouting" replacedAtTime="329.00" probability="0" edges="gneE0 gneE1 gneE2 gneE3"/>
            <route edges="gneE0 gneE4 gneE5 gneE3"/>
        </routeDistribution>
    </vehicle>

    <vehicle id="veh150" type="default" depart="484.00" departPos="1.00" arrivalPos="80.00" arrivalSpeed="0.00" arrival="585.00">
        <routeDistribution>
            <route replacedOnEdge="" reason="device.rerouting" replacedAtTime="150.00" probability="0" edges="gneE0 gneE3"/>
            <route replacedOnEdge="" reason="device.rerouting" replacedAtTime="330.00" probability="0" edges="gneE0 gneE1 gneE2 gneE3"/>
            <route edges="gneE0 gneE4 gneE5 gneE3"/>
        </routeDistribution>
    </vehicle>

    <vehicle id="veh151" type="default" depart="488.00" departPos="1.00" arrivalPos="80.00" arrivalSpeed="0.00" arrival="589.00">
        <routeDistribution>
            <route replacedOnEdge="" reason="device.rerouting" replacedAtTime="151.00" probability="0" edges="gneE0 gneE3"/>
            <route replacedOnEdge="" reason="device.rerouting" replacedAtTime="211.00" probability="0" edges="gneE0 gneE4 gneE5 gneE3"/>
            <route replacedOnEdge="" reason="device.rerouting" replacedAtTime="331.00" probability="0" edges="gneE0 gneE1 gneE2 gneE3"/>
            <route edges="gneE0 gneE4 gneE5 gneE3"/>
        </routeDistribution>
    </vehicle>

    <vehicle id="veh152" type="default" depart="491.00" departPos="1.00" arrivalPos="80.00" arrivalSpeed="0.00" arrival="592.00">
        <routeDistribution>
            <route replacedOnEdge="" reason="device.rerouting" replacedAtTime="152.00" probability="0" edges="gneE0 gneE3"/>
            <route replacedOnEdge="" reason="device.rerouting" replacedAtTime="332.00" probability="0" edges="gneE0 gneE1 gneE2 gneE3"/>
            <route edges="gneE0 gneE4 gneE5 gneE3"/>
        </routeDistribution>
    </vehicle>

    <vehicle id="veh153" type="default" depart="494.00" departPos="1.00" arrivalPos="80.00" arrivalSpeed="0.00" arrival="595.00">
        <routeDistribution>
            <route replacedOnEdge="" reason="device.rerouting" replacedAtTime="153.00" probability="0" edges="gneE0 gneE3"/>
            <route replacedOnEdge="" reason="device.rerouting" replacedAtTime="333.00" probability="0" edges="gneE0 gneE1 gneE2 gneE3"/>
            <route edges="gneE0 gneE4 gneE5 gneE3"/>
        </routeDistribution>
    </vehicle>

    <vehicle id="veh154" type="default" depart="498.00" departPos="1.00" arrivalPos="80.00" arrivalSpeed="0.00" arrival="600.00">
        <routeDistribution>
            <route replacedOnEdge="" reason="device.rerouting" replacedAtTime="154.00" probability="0" edges="gneE0 gneE3"/>
            <route replacedOnEdge="" reason="device.rerouting" replacedAtTime="214.00" probability="0" edges="gneE0 gneE4 gneE5 gneE3"/>
            <route replacedOnEdge="" reason="device.rerouting" replacedAtTime="334.00" probability="0" edges="gneE0 gneE1 gneE2 gneE3"/>
            <route edges="gneE0 gneE4 gneE5 gneE3"/>
        </routeDistribution>
    </vehicle>

    <vehicle id="veh155" type="default" depart="502.00" departPos="1.00" arrivalPos="80.00" arrivalSpeed="0.00" arrival="604.00">
        <routeDistribution>
            <route replacedOnEdge="" reason="device.rerouting" replacedAtTime="335.00" probability="0" edges="gneE0 gneE1 gneE2 gneE3"/>
            <route edges="gneE0 gneE4 gneE5 gneE3"/>
        </routeDistribution>
    </vehicle>

    <vehicle id="veh156" type="default" depart="507.00" departPos="1.00" arrivalPos="80.00" arrivalSpeed="0.00" arrival="608.00">
        <routeDistribution>
            <route replacedOnEdge="" reason="device.rerouting" replacedAtTime="336.00" probability="0" edges="gneE0 gneE1 gneE2 gneE3"/>
            <route edges="gneE0 gneE4 gneE5 gneE3"/>
        </routeDistribution>
    </vehicle>

    <vehicle id="veh157" type="default" depart="510.00" departPos="1.00" arrivalPos="80.00" arrivalSpeed="0.00" arrival="612.00">
        <routeDistribution>
            <route replacedOnEdge="" reason="device.rerouting" replacedAtTime="337.00" probability="0" edges="gneE0 gneE1 gneE2 gneE3"/>
            <route edges="gneE0 gneE4 gneE5 gneE3"/>
        </routeDistribution>
    </vehicle>

    <vehicle id="veh158" type="default" depart="514.00" departPos="1.00" arrivalPos="80.00" arrivalSpeed="0.00" arrival="616.00">
        <routeDistribution>
            <route replacedOnEdge="" reason="device.rerouting" replacedAtTime="338.00" probability="0" edges="gneE0 gneE1 gneE2 gneE3"/>
            <route edges="gneE0 gneE4 gneE5 gneE3"/>
        </routeDistribution>
    </vehicle>

    <vehicle id="veh159" type="default" depart="517.00" departPos="1.00" arrivalPos="80.00" arrivalSpeed="0.00" arrival="619.00">
        <routeDistribution>
            <route replacedOnEdge="" reason="device.rerouting" replacedAtTime="219.00" probability="0" edges="gneE0 gneE4 gneE5 gneE3"/>
            <route replacedOnEdge="" reason="device.rerouting" replacedAtTime="339.00" probability="0" edges="gneE0 gneE1 gneE2 gneE3"/>
            <route edges="gneE0 gneE4 gneE5 gneE3"/>
        </routeDistribution>
    </vehicle>

    <vehicle id="veh160" type="default" depart="520.00" departPos="1.00" arrivalPos="80.00" arrivalSpeed="0.00" arrival="623.00">
        <routeDistribution>
            <route replacedOnEdge="" reason="device.rerouting" replacedAtTime="340.00" probability="0" edges="gneE0 gneE1 gneE2 gneE3"/>
            <route edges="gneE0 gneE4 gneE5 gneE3"/>
        </routeDistribution>
    </vehicle>

    <vehicle id="veh161" type="default" depart="524.00" departPos="1.00" arrivalPos="80.00" arrivalSpeed="0.00" arrival="628.00">
        <routeDistribution>
            <route replacedOnEdge="" reason="device.rerouting" replacedAtTime="221.00" probability="0" edges="gneE0 gneE4 gneE5 gneE3"/>
            <route replacedOnEdge="" reason="device.rerouting" replacedAtTime="341.00" probability="0" edges="gneE0 gneE1 gneE2 gneE3"/>
            <route edges="gneE0 gneE4 gneE5 gneE3"/>
        </routeDistribution>
    </vehicle>

    <vehicle id="veh162" type="default" depart="528.00" departPos="1.00" arrivalPos="80.00" arrivalSpeed="0.00" arrival="633.00">
        <routeDistribution>
            <route replacedOnEdge="" reason="device.rerouting" replacedAtTime="342.00" probability="0" edges="gneE0 gneE1 gneE2 gneE3"/>
            <route edges="gneE0 gneE4 gneE5 gneE3"/>
        </routeDistribution>
    </vehicle>

    <vehicle id="veh163" type="default" depart="533.00" departPos="1.00" arrivalPos="80.00" arrivalSpeed="0.00" arrival="637.00">
        <routeDistribution>
            <route replacedOnEdge="" reason="device.rerouting" replacedAtTime="283.00" probability="0" edges="gneE0 gneE1 gneE2 gneE3"/>
            <route edges="gneE0 gneE4 gneE5 gneE3"/>
        </routeDistribution>
    </vehicle>

    <vehicle id="veh164" type="default" depart="538.00" departPos="1.00" arrivalPos="80.00" arrivalSpeed="0.00" arrival="641.00">
        <routeDistribution>
            <route replacedOnEdge="" reason="device.rerouting" replacedAtTime="284.00" probability="0" edges="gneE0 gneE1 gneE2 gneE3"/>
            <route edges="gneE0 gneE4 gneE5 gneE3"/>
        </routeDistribution>
    </vehicle>

    <vehicle id="veh165" type="default" depart="542.00" departPos="1.00" arrivalPos="80.00" arrivalSpeed="0.00" arrival="644.00">
        <routeDistribution>
            <route replacedOnEdge="" reason="device.rerouting" replacedAtTime="285.00" probability="0" edges="gneE0 gneE1 gneE2 gneE3"/>
            <route edges="gneE0 gneE4 gneE5 gneE3"/>
        </routeDistribution>
    </vehicle>

    <vehicle id="veh166" type="default" depart="546.00" departPos="1.00" arrivalPos="80.00" arrivalSpeed="0.00" arrival="647.00">
        <routeDistribution>
            <route replacedOnEdge="" reason="device.rerouting" replacedAtTime="226.00" probability="0" edges="gneE0 gneE4 gneE5 gneE3"/>
            <route replacedOnEdge="" reason="device.rerouting" replacedAtTime="286.00" probability="0" edges="gneE0 gneE1 gneE2 gneE3"/>
            <route edges="gneE0 gneE4 gneE5 gneE3"/>
        </routeDistribution>
    </vehicle>

    <vehicle id="veh167" type="default" depart="550.00" departPos="1.00" arrivalPos="80.00" arrivalSpeed="0.00" arrival="650.00">
        <routeDistribution>
            <route replacedOnEdge="" reason="device.rerouting" replacedAtTime="287.00" probability="0" edges="gneE0 gneE1 gneE2 gneE3"/>
            <route edges="gneE0 gneE4 gneE5 gneE3"/>
        </routeDistribution>
    </vehicle>

    <vehicle id="veh168" type="default" depart="553.00" departPos="1.00" arrivalPos="80.00" arrivalSpeed="0.00" arrival="653.00">
        <routeDistribution>
            <route replacedOnEdge="" reason="device.rerouting" replacedAtTime="288.00" probability="0" edges="gneE0 gneE1 gneE2 gneE3"/>
            <route edges="gneE0 gneE4 gneE5 gneE3"/>
        </routeDistribution>
    </vehicle>

    <vehicle id="veh169" type="default" depart="556.00" departPos="1.00" arrivalPos="80.00" arrivalSpeed="0.00" arrival="656.00">
        <routeDistribution>
            <route replacedOnEdge="" reason="device.rerouting" replacedAtTime="289.00" probability="0" edges="gneE0 gneE1 gneE2 gneE3"/>
            <route edges="gneE0 gneE4 gneE5 gneE3"/>
        </routeDistribution>
    </vehicle>

    <vehicle id="veh170" type="default" depart="560.00" departPos="1.00" arrivalPos="80.00" arrivalSpeed="0.00" arrival="660.00">
        <routeDistribution>
            <route replacedOnEdge="" reason="device.rerouting" replacedAtTime="290.00" probability="0" edges="gneE0 gneE1 gneE2 gneE3"/>
            <route edges="gneE0 gneE4 gneE5 gneE3"/>
        </routeDistribution>
    </vehicle>

    <vehicle id="veh171" type="default" depart="563.00" departPos="1.00" arrivalPos="80.00" arrivalSpeed="0.00" arrival="663.00">
        <routeDistribution>
            <route replacedOnEdge="" reason="device.rerouting" replacedAtTime="291.00" probability="0" edges="gneE0 gneE1 gneE2 gneE3"/>
            <route edges="gneE0 gneE4 gneE5 gneE3"/>
        </routeDistribution>
    </vehicle>

    <vehicle id="veh172" type="default" depart="568.00" departPos="1.00" arrivalPos="80.00" arrivalSpeed="0.00" arrival="666.00">
        <routeDistribution>
            <route replacedOnEdge="" reason="device.rerouting" replacedAtTime="292.00" probability="0" edges="gneE0 gneE1 gneE2 gneE3"/>
            <route edges="gneE0 gneE4 gneE5 gneE3"/>
        </routeDistribution>
    </vehicle>

    <vehicle id="veh173" type="default" depart="572.00" departPos="1.00" arrivalPos="80.00" arrivalSpeed="0.00" arrival="670.00">
        <routeDistribution>
            <route replacedOnEdge="" reason="device.rerouting" replacedAtTime="293.00" probability="0" edges="gneE0 gneE1 gneE2 gneE3"/>
            <route edges="gneE0 gneE4 gneE5 gneE3"/>
        </routeDistribution>
    </vehicle>

    <vehicle id="veh174" type="default" depart="575.00" departPos="1.00" arrivalPos="80.00" arrivalSpeed="0.00" arrival="674.00">
        <routeDistribution>
            <route replacedOnEdge="" reason="device.rerouting" replacedAtTime="294.00" probability="0" edges="gneE0 gneE1 gneE2 gneE3"/>
            <route edges="gneE0 gneE4 gneE5 gneE3"/>
        </routeDistribution>
    </vehicle>

    <vehicle id="veh175" type="default" depart="581.00" departPos="1.00" arrivalPos="80.00" arrivalSpeed="0.00" arrival="679.00">
        <routeDistribution>
            <route replacedOnEdge="" reason="device.rerouting" replacedAtTime="295.00" probability="0" edges="gneE0 gneE1 gneE2 gneE3"/>
            <route edges="gneE0 gneE4 gneE5 gneE3"/>
        </routeDistribution>
    </vehicle>

    <vehicle id="veh176" type="default" depart="585.00" departPos="1.00" arrivalPos="80.00" arrivalSpeed="0.00" arrival="682.00">
        <routeDistribution>
            <route replacedOnEdge="" reason="device.rerouting" replacedAtTime="296.00" probability="0" edges="gneE0 gneE1 gneE2 gneE3"/>
            <route edges="gneE0 gneE4 gneE5 gneE3"/>
        </routeDistribution>
    </vehicle>

    <vehicle id="veh177" type="default" depart="590.00" departPos="1.00" arrivalPos="80.00" arrivalSpeed="0.00" arrival="686.00">
        <routeDistribution>
            <route replacedOnEdge="" reason="device.rerouting" replacedAtTime="297.00" probability="0" edges="gneE0 gneE1 gneE2 gneE3"/>
            <route edges="gneE0 gneE4 gneE5 gneE3"/>
        </routeDistribution>
    </vehicle>

    <vehicle id="veh178" type="default" depart="594.00" departPos="1.00" arrivalPos="80.00" arrivalSpeed="0.00" arrival="691.00">
        <routeDistribution>
            <route replacedOnEdge="" reason="device.rerouting" replacedAtTime="298.00" probability="0" edges="gneE0 gneE1 gneE2 gneE3"/>
            <route edges="gneE0 gneE4 gneE5 gneE3"/>
        </routeDistribution>
    </vehicle>

    <vehicle id="veh179" type="default" depart="597.00" departPos="1.00" arrivalPos="80.00" arrivalSpeed="0.00" arrival="695.00">
        <routeDistribution>
            <route replacedOnEdge="" reason="device.rerouting" replacedAtTime="299.00" probability="0" edges="gneE0 gneE1 gneE2 gneE3"/>
            <route edges="gneE0 gneE4 gneE5 gneE3"/>
        </routeDistribution>
    </vehicle>

    <vehicle id="veh180" type="default" depart="600.00" departPos="1.00" arrivalPos="80.00" arrivalSpeed="0.00" arrival="699.00">
        <routeDistribution>
            <route replacedOnEdge="" reason="device.rerouting" replacedAtTime="300.00" probability="0" edges="gneE0 gneE1 gneE2 gneE3"/>
            <route edges="gneE0 gneE4 gneE5 gneE3"/>
        </routeDistribution>
    </vehicle>

    <vehicle id="veh181" type="default" depart="603.00" departPos="1.00" arrivalPos="80.00" arrivalSpeed="0.00" arrival="703.00">
        <routeDistribution>
            <route replacedOnEdge="" reason="device.rerouting" replacedAtTime="301.00" probability="0" edges="gneE0 gneE1 gneE2 gneE3"/>
            <route edges="gneE0 gneE4 gneE5 gneE3"/>
        </routeDistribution>
    </vehicle>

    <vehicle id="veh182" type="default" depart="606.00" departPos="1.00" arrivalPos="80.00" arrivalSpeed="0.00" arrival="708.00">
        <routeDistribution>
            <route replacedOnEdge="" reason="device.rerouting" replacedAtTime="302.00" probability="0" edges="gneE0 gneE1 gneE2 gneE3"/>
            <route edges="gneE0 gneE4 gneE5 gneE3"/>
        </routeDistribution>
    </vehicle>

    <vehicle id="veh183" type="default" depart="610.00" departPos="1.00" arrivalPos="80.00" arrivalSpeed="0.00" arrival="712.00">
        <routeDistribution>
            <route replacedOnEdge="" reason="device.rerouting" replacedAtTime="303.00" probability="0" edges="gneE0 gneE1 gneE2 gneE3"/>
            <route edges="gneE0 gneE4 gneE5 gneE3"/>
        </routeDistribution>
    </vehicle>

    <vehicle id="veh184" type="default" depart="614.00" departPos="1.00" arrivalPos="80.00" arrivalSpeed="0.00" arrival="715.00">
        <routeDistribution>