<?xml version="1.0" encoding="UTF-8"?>

<!-- generated on Sat Mar 17 11:44:19 2018 by SUMO Version v0_32_0+0760-bc58d11
<configuration xmlns:xsi="http://www.w3.org/2001/XMLSchema-instance" xsi:noNamespaceSchemaLocation="http://sumo.dlr.de/xsd/sumoConfiguration.xsd">

    <input>
        <net-file value="input_net.net.xml"/>
        <load-state value="state.xml"/>
    </input>

    <output>
        <vehroute-output value="vehroutes2.xml"/>
    </output>

    <time>
        <begin value="500"/>
    </time>

    <report>
        <duration-log.disable value="true"/>
        <no-step-log value="true"/>
    </report>

</configuration>
-->

<routes xmlns:xsi="http://www.w3.org/2001/XMLSchema-instance" xsi:noNamespaceSchemaLocation="http://sumo.dlr.de/xsd/routes_file.xsd">
    <vehicle id="veh133" type="default" depart="398.00" departPos="1.00" arrivalPos="80.00" arrivalSpeed="0.00" arrival="501.00">
        <routeDistribution>
            <route replacedOnEdge="" replacedAtTime="133.00" probability="0" edges="gneE0 gneE3"/>
            <route replacedOnEdge="" replacedAtTime="193.00" probability="0" edges="gneE0 gneE1 gneE2 gneE3"/>
            <route edges="gneE0 gneE4 gneE5 gneE3"/>
        </routeDistribution>
    </vehicle>

    <vehicle id="veh134" type="default" depart="401.00" departPos="1.00" arrivalPos="80.00" arrivalSpeed="0.00" arrival="505.00">
        <routeDistribution>
            <route replacedOnEdge="" replacedAtTime="134.00" probability="0" edges="gneE0 gneE3"/>
            <route replacedOnEdge="" replacedAtTime="194.00" probability="0" edges="gneE0 gneE1 gneE2 gneE3"/>
            <route edges="gneE0 gneE4 gneE5 gneE3"/>
        </routeDistribution>
    </vehicle>

    <vehicle id="veh135" type="default" depart="405.00" departPos="1.00" arrivalPos="80.00" arrivalSpeed="0.00" arrival="508.00">
        <routeDistribution>
            <route replacedOnEdge="" replacedAtTime="135.00" probability="0" edges="gneE0 gneE3"/>
            <route replacedOnEdge="" replacedAtTime="195.00" probability="0" edges="gneE0 gneE1 gneE2 gneE3"/>
            <route edges="gneE0 gneE4 gneE5 gneE3"/>
        </routeDistribution>
    </vehicle>

    <vehicle id="veh136" type="default" depart="408.00" departPos="1.00" arrivalPos="80.00" arrivalSpeed="0.00" arrival="511.00">
        <routeDistribution>
            <route replacedOnEdge="" replacedAtTime="136.00" probability="0" edges="gneE0 gneE3"/>
            <route replacedOnEdge="" replacedAtTime="196.00" probability="0" edges="gneE0 gneE1 gneE2 gneE3"/>
            <route edges="gneE0 gneE4 gneE5 gneE3"/>
        </routeDistribution>
    </vehicle>

    <vehicle id="veh137" type="default" depart="412.00" departPos="1.00" arrivalPos="80.00" arrivalSpeed="0.00" arrival="515.00">
        <routeDistribution>
            <route replacedOnEdge="" replacedAtTime="137.00" probability="0" edges="gneE0 gneE3"/>
            <route replacedOnEdge="" replacedAtTime="197.00" probability="0" edges="gneE0 gneE1 gneE2 gneE3"/>
            <route edges="gneE0 gneE4 gneE5 gneE3"/>
        </routeDistribution>
    </vehicle>

    <vehicle id="veh60" type="default" depart="178.00" departPos="1.00" arrivalPos="80.00" arrivalSpeed="0.00" arrival="516.00">
        <routeDistribution>
            <route replacedOnEdge="" replacedAtTime="60.00" probability="0" edges="gneE0 gneE3"/>
            <route replacedOnEdge="" replacedAtTime="120.00" probability="0" edges="gneE0 gneE4 gneE5 gneE3"/>
            <route edges="gneE0 gneE1 gneE2 gneE3"/>
        </routeDistribution>
    </vehicle>

    <vehicle id="veh138" type="default" depart="415.00" departPos="1.00" arrivalPos="80.00" arrivalSpeed="0.00" arrival="519.00">
        <routeDistribution>
            <route replacedOnEdge="" replacedAtTime="138.00" probability="0" edges="gneE0 gneE3"/>
            <route replacedOnEdge="" replacedAtTime="198.00" probability="0" edges="gneE0 gneE1 gneE2 gneE3"/>
            <route edges="gneE0 gneE4 gneE5 gneE3"/>
        </routeDistribution>
    </vehicle>

    <vehicle id="veh139" type="default" depart="418.00" departPos="1.00" arrivalPos="80.00" arrivalSpeed="0.00" arrival="523.00">
        <routeDistribution>
            <route replacedOnEdge="" replacedAtTime="139.00" probability="0" edges="gneE0 gneE3"/>
            <route replacedOnEdge="" replacedAtTime="199.00" probability="0" edges="gneE0 gneE1 gneE2 gneE3"/>
            <route edges="gneE0 gneE4 gneE5 gneE3"/>
        </routeDistribution>
    </vehicle>

    <vehicle id="veh140" type="default" depart="421.00" departPos="1.00" arrivalPos="80.00" arrivalSpeed="0.00" arrival="528.00">
        <routeDistribution>
            <route replacedOnEdge="" replacedAtTime="140.00" probability="0" edges="gneE0 gneE3"/>
            <route replacedOnEdge="" replacedAtTime="200.00" probability="0" edges="gneE0 gneE1 gneE2 gneE3"/>
            <route edges="gneE0 gneE4 gneE5 gneE3"/>
        </routeDistribution>
    </vehicle>

    <vehicle id="veh141" type="default" depart="424.00" departPos="1.00" arrivalPos="80.00" arrivalSpeed="0.00" arrival="533.00">
        <routeDistribution>
            <route replacedOnEdge="" replacedAtTime="141.00" probability="0" edges="gneE0 gneE3"/>
            <route replacedOnEdge="" replacedAtTime="201.00" probability="0" edges="gneE0 gneE1 gneE2 gneE3"/>
            <route edges="gneE0 gneE4 gneE5 gneE3"/>
        </routeDistribution>
    </vehicle>

    <vehicle id="veh142" type="default" depart="427.00" departPos="1.00" arrivalPos="80.00" arrivalSpeed="0.00" arrival="536.00">
        <routeDistribution>
            <route replacedOnEdge="" replacedAtTime="142.00" probability="0" edges="gneE0 gneE3"/>
            <route replacedOnEdge="" replacedAtTime="202.00" probability="0" edges="gneE0 gneE1 gneE2 gneE3"/>
            <route edges="gneE0 gneE4 gneE5 gneE3"/>
        </routeDistribution>
    </vehicle>

    <vehicle id="veh143" type="default" depart="431.00" departPos="1.00" arrivalPos="80.00" arrivalSpeed="0.00" arrival="539.00">
        <routeDistribution>
            <route replacedOnEdge="" replacedAtTime="143.00" probability="0" edges="gneE0 gneE3"/>
            <route replacedOnEdge="" replacedAtTime="203.00" probability="0" edges="gneE0 gneE1 gneE2 gneE3"/>
            <route edges="gneE0 gneE4 gneE5 gneE3"/>
        </routeDistribution>
    </vehicle>

    <vehicle id="veh144" type="default" depart="435.00" departPos="1.00" arrivalPos="80.00" arrivalSpeed="0.00" arrival="542.00">
        <routeDistribution>
            <route replacedOnEdge="" replacedAtTime="144.00" probability="0" edges="gneE0 gneE3"/>
            <route replacedOnEdge="" replacedAtTime="204.00" probability="0" edges="gneE0 gneE1 gneE2 gneE3"/>
            <route edges="gneE0 gneE4 gneE5 gneE3"/>
        </routeDistribution>
    </vehicle>

    <vehicle id="veh145" type="default" depart="438.00" departPos="1.00" arrivalPos="80.00" arrivalSpeed="0.00" arrival="546.00">
        <routeDistribution>
            <route replacedOnEdge="" replacedAtTime="145.00" probability="0" edges="gneE0 gneE3"/>
            <route replacedOnEdge="" replacedAtTime="205.00" probability="0" edges="gneE0 gneE1 gneE2 gneE3"/>
            <route edges="gneE0 gneE4 gneE5 gneE3"/>
        </routeDistribution>
    </vehicle>

    <vehicle id="veh146" type="default" depart="443.00" departPos="1.00" arrivalPos="80.00" arrivalSpeed="0.00" arrival="550.00">
        <routeDistribution>
            <route replacedOnEdge="" replacedAtTime="146.00" probability="0" edges="gneE0 gneE3"/>
            <route replacedOnEdge="" replacedAtTime="206.00" probability="0" edges="gneE0 gneE1 gneE2 gneE3"/>
            <route edges="gneE0 gneE4 gneE5 gneE3"/>
        </routeDistribution>
    </vehicle>

    <vehicle id="veh147" type="default" depart="446.00" departPos="1.00" arrivalPos="80.00" arrivalSpeed="0.00" arrival="553.00">
        <routeDistribution>
            <route replacedOnEdge="" replacedAtTime="147.00" probability="0" edges="gneE0 gneE3"/>
            <route replacedOnEdge="" replacedAtTime="207.00" probability="0" edges="gneE0 gneE1 gneE2 gneE3"/>
            <route edges="gneE0 gneE4 gneE5 gneE3"/>
        </routeDistribution>
    </vehicle>

    <vehicle id="veh148" type="default" depart="450.00" departPos="1.00" arrivalPos="80.00" arrivalSpeed="0.00" arrival="557.00">
        <routeDistribution>
            <route replacedOnEdge="" replacedAtTime="148.00" probability="0" edges="gneE0 gneE3"/>
            <route replacedOnEdge="" replacedAtTime="208.00" probability="0" edges="gneE0 gneE1 gneE2 gneE3"/>
            <route edges="gneE0 gneE4 gneE5 gneE3"/>
        </routeDistribution>
    </vehicle>

    <vehicle id="veh149" type="default" depart="453.00" departPos="1.00" arrivalPos="80.00" arrivalSpeed="0.00" arrival="562.00">
        <routeDistribution>
            <route replacedOnEdge="" replacedAtTime="149.00" probability="0" edges="gneE0 gneE3"/>
            <route replacedOnEdge="" replacedAtTime="209.00" probability="0" edges="gneE0 gneE1 gneE2 gneE3"/>
            <route edges="gneE0 gneE4 gneE5 gneE3"/>
        </routeDistribution>
    </vehicle>

    <vehicle id="veh150" type="default" depart="457.00" departPos="1.00" arrivalPos="80.00" arrivalSpeed="0.00" arrival="566.00">
        <routeDistribution>
            <route replacedOnEdge="" replacedAtTime="150.00" probability="0" edges="gneE0 gneE3"/>
            <route replacedOnEdge="" replacedAtTime="210.00" probability="0" edges="gneE0 gneE1 gneE2 gneE3"/>
            <route edges="gneE0 gneE4 gneE5 gneE3"/>
        </routeDistribution>
    </vehicle>

    <vehicle id="veh151" type="default" depart="462.00" departPos="1.00" arrivalPos="80.00" arrivalSpeed="0.00" arrival="570.00">
        <routeDistribution>
            <route replacedOnEdge="" replacedAtTime="151.00" probability="0" edges="gneE0 gneE3"/>
            <route replacedOnEdge="" replacedAtTime="211.00" probability="0" edges="gneE0 gneE1 gneE2 gneE3"/>
            <route edges="gneE0 gneE4 gneE5 gneE3"/>
        </routeDistribution>
    </vehicle>

    <vehicle id="veh152" type="default" depart="467.00" departPos="1.00" arrivalPos="80.00" arrivalSpeed="0.00" arrival="574.00">
        <routeDistribution>
            <route replacedOnEdge="" replacedAtTime="152.00" probability="0" edges="gneE0 gneE3"/>
            <route replacedOnEdge="" replacedAtTime="212.00" probability="0" edges="gneE0 gneE1 gneE2 gneE3"/>
            <route edges="gneE0 gneE4 gneE5 gneE3"/>
        </routeDistribution>
    </vehicle>

    <vehicle id="veh153" type="default" depart="470.00" departPos="1.00" arrivalPos="80.00" arrivalSpeed="0.00" arrival="577.00">
        <routeDistribution>
            <route replacedOnEdge="" replacedAtTime="153.00" probability="0" edges="gneE0 gneE3"/>
            <route replacedOnEdge="" replacedAtTime="213.00" probability="0" edges="gneE0 gneE1 gneE2 gneE3"/>
            <route edges="gneE0 gneE4 gneE5 gneE3"/>
        </routeDistribution>
    </vehicle>

    <vehicle id="veh154" type="default" depart="473.00" departPos="1.00" arrivalPos="80.00" arrivalSpeed="0.00" arrival="580.00">
        <routeDistribution>
            <route replacedOnEdge="" replacedAtTime="154.00" probability="0" edges="gneE0 gneE3"/>
            <route replacedOnEdge="" replacedAtTime="214.00" probability="0" edges="gneE0 gneE1 gneE2 gneE3"/>
            <route edges="gneE0 gneE4 gneE5 gneE3"/>
        </routeDistribution>
    </vehicle>

    <vehicle id="veh155" type="default" depart="478.00" departPos="1.00" arrivalPos="80.00" arrivalSpeed="0.00" arrival="584.00">
        <routeDistribution>
            <route replacedOnEdge="" replacedAtTime="155.00" probability="0" edges="gneE0 gneE3"/>
            <route replacedOnEdge="" replacedAtTime="215.00" probability="0" edges="gneE0 gneE1 gneE2 gneE3"/>
            <route edges="gneE0 gneE4 gneE5 gneE3"/>
        </routeDistribution>
    </vehicle>

    <vehicle id="veh156" type="default" depart="483.00" departPos="1.00" arrivalPos="80.00" arrivalSpeed="0.00" arrival="589.00">
        <routeDistribution>
            <route replacedOnEdge="" replacedAtTime="156.00" probability="0" edges="gneE0 gneE3"/>
            <route replacedOnEdge="" replacedAtTime="216.00" probability="0" edges="gneE0 gneE1 gneE2 gneE3"/>
            <route edges="gneE0 gneE4 gneE5 gneE3"/>
        </routeDistribution>
    </vehicle>

    <vehicle id="veh157" type="default" depart="486.00" departPos="1.00" arrivalPos="80.00" arrivalSpeed="0.00" arrival="593.00">
        <routeDistribution>
            <route replacedOnEdge="" replacedAtTime="157.00" probability="0" edges="gneE0 gneE3"/>
            <route replacedOnEdge="" replacedAtTime="217.00" probability="0" edges="gneE0 gneE1 gneE2 gneE3"/>
            <route edges="gneE0 gneE4 gneE5 gneE3"/>
        </routeDistribution>
    </vehicle>

    <vehicle id="veh158" type="default" depart="489.00" departPos="1.00" arrivalPos="80.00" arrivalSpeed="0.00" arrival="596.00">
        <routeDistribution>
            <route replacedOnEdge="" replacedAtTime="158.00" probability="0" edges="gneE0 gneE3"/>
            <route replacedOnEdge="" replacedAtTime="218.00" probability="0" edges="gneE0 gneE1 gneE2 gneE3"/>
            <route edges="gneE0 gneE4 gneE5 gneE3"/>
        </routeDistribution>
    </vehicle>

    <vehicle id="veh159" type="default" depart="493.00" departPos="1.00" arrivalPos="80.00" arrivalSpeed="0.00" arrival="598.00">
        <routeDistribution>
            <route replacedOnEdge="" replacedAtTime="159.00" probability="0" edges="gneE0 gneE3"/>
            <route replacedOnEdge="" replacedAtTime="219.00" probability="0" edges="gneE0 gneE1 gneE2 gneE3"/>
            <route edges="gneE0 gneE4 gneE5 gneE3"/>
        </routeDistribution>
    </vehicle>

    <vehicle id="veh160" type="default" depart="498.00" departPos="1.00" arrivalPos="80.00" arrivalSpeed="0.00" arrival="602.00">
        <routeDistribution>
            <route replacedOnEdge="" replacedAtTime="160.00" probability="0" edges="gneE0 gneE3"/>
            <route replacedOnEdge="" replacedAtTime="220.00" probability="0" edges="gneE0 gneE1 gneE2 gneE3"/>
            <route edges="gneE0 gneE4 gneE5 gneE3"/>
        </routeDistribution>
    </vehicle>

    <vehicle id="veh161" type="default" depart="503.00" departPos="1.00" arrivalPos="80.00" arrivalSpeed="0.00" arrival="606.00">
        <routeDistribution>
            <route replacedOnEdge="" replacedAtTime="161.00" probability="0" edges="gneE0 gneE3"/>
            <route replacedOnEdge="" replacedAtTime="221.00" probability="0" edges="gneE0 gneE1 gneE2 gneE3"/>
            <route edges="gneE0 gneE4 gneE5 gneE3"/>
        </routeDistribution>
    </vehicle>

    <vehicle id="veh162" type="default" depart="507.00" departPos="1.00" arrivalPos="80.00" arrivalSpeed="0.00" arrival="610.00">
        <routeDistribution>
            <route replacedOnEdge="" replacedAtTime="162.00" probability="0" edges="gneE0 gneE3"/>
            <route replacedOnEdge="" replacedAtTime="222.00" probability="0" edges="gneE0 gneE1 gneE2 gneE3"/>
            <route edges="gneE0 gneE4 gneE5 gneE3"/>
        </routeDistribution>
    </vehicle>

    <vehicle id="veh163" type="default" depart="512.00" departPos="1.00" arrivalPos="80.00" arrivalSpeed="0.00" arrival="613.00">
        <routeDistribution>
            <route replacedOnEdge="" replacedAtTime="163.00" probability="0" edges="gneE0 gneE3"/>
            <route replacedOnEdge="" replacedAtTime="223.00" probability="0" edges="gneE0 gneE1 gneE2 gneE3"/>
            <route edges="gneE0 gneE4 gneE5 gneE3"/>
        </routeDistribution>
    </vehicle>

    <vehicle id="veh164" type="default" depart="518.00" departPos="1.00" arrivalPos="80.00" arrivalSpeed="0.00" arrival="616.00">
        <routeDistribution>
            <route replacedOnEdge="" replacedAtTime="164.00" probability="0" edges="gneE0 gneE3"/>
            <route replacedOnEdge="" replacedAtTime="224.00" probability="0" edges="gneE0 gneE1 gneE2 gneE3"/>
            <route edges="gneE0 gneE4 gneE5 gneE3"/>
        </routeDistribution>
    </vehicle>

    <vehicle id="veh165" type="default" depart="522.00" departPos="1.00" arrivalPos="80.00" arrivalSpeed="0.00" arrival="618.00">
        <routeDistribution>
            <route replacedOnEdge="" replacedAtTime="165.00" probability="0" edges="gneE0 gneE3"/>
            <route replacedOnEdge="" replacedAtTime="225.00" probability="0" edges="gneE0 gneE1 gneE2 gneE3"/>
            <route edges="gneE0 gneE4 gneE5 gneE3"/>
        </routeDistribution>
    </vehicle>

    <vehicle id="veh166" type="default" depart="525.00" departPos="1.00" arrivalPos="80.00" arrivalSpeed="0.00" arrival="623.00">
        <routeDistribution>
            <route replacedOnEdge="" replacedAtTime="166.00" probability="0" edges="gneE0 gneE3"/>
            <route replacedOnEdge="" replacedAtTime="226.00" probability="0" edges="gneE0 gneE1 gneE2 gneE3"/>
            <route edges="gneE0 gneE4 gneE5 gneE3"/>
        </routeDistribution>
    </vehicle>

    <vehicle id="veh167" type="default" depart="529.00" departPos="1.00" arrivalPos="80.00" arrivalSpeed="0.00" arrival="627.00">
        <routeDistribution>
            <route replacedOnEdge="" replacedAtTime="167.00" probability="0" edges="gneE0 gneE3"/>
            <route replacedOnEdge="" replacedAtTime="227.00" probability="0" edges="gneE0 gneE1 gneE2 gneE3"/>
            <route edges="gneE0 gneE4 gneE5 gneE3"/>
        </routeDistribution>
    </vehicle>

    <vehicle id="veh168" type="default" depart="533.00" departPos="1.00" arrivalPos="80.00" arrivalSpeed="0.00" arrival="630.00">
        <routeDistribution>
            <route replacedOnEdge="" replacedAtTime="168.00" probability="0" edges="gneE0 gneE3"/>
            <route replacedOnEdge="" replacedAtTime="228.00" probability="0" edges="gneE0 gneE1 gneE2 gneE3"/>
            <route edges="gneE0 gneE4 gneE5 gneE3"/>
        </routeDistribution>
    </vehicle>

    <vehicle id="veh169" type="default" depart="537.00" departPos="1.00" arrivalPos="80.00" arrivalSpeed="0.00" arrival="634.00">
        <routeDistribution>
            <route replacedOnEdge="" replacedAtTime="169.00" probability="0" edges="gneE0 gneE3"/>
            <route replacedOnEdge="" replacedAtTime="229.00" probability="0" edges="gneE0 gneE1 gneE2 gneE3"/>
            <route edges="gneE0 gneE4 gneE5 gneE3"/>
        </routeDistribution>
    </vehicle>

    <vehicle id="veh170" type="default" depart="541.00" departPos="1.00" arrivalPos="80.00" arrivalSpeed="0.00" arrival="639.00">
        <routeDistribution>
            <route replacedOnEdge="" replacedAtTime="170.00" probability="0" edges="gneE0 gneE3"/>
            <route replacedOnEdge="" replacedAtTime="230.00" probability="0" edges="gneE0 gneE1 gneE2 gneE3"/>
            <route edges="gneE0 gneE4 gneE5 gneE3"/>
        </routeDistribution>
    </vehicle>

    <vehicle id="veh171" type="default" depart="546.00" departPos="1.00" arrivalPos="80.00" arrivalSpeed="0.00" arrival="642.00">
        <routeDistribution>
            <route replacedOnEdge="" replacedAtTime="171.00" probability="0" edges="gneE0 gneE3"/>
            <route replacedOnEdge="" replacedAtTime="231.00" probability="0" edges="gneE0 gneE1 gneE2 gneE3"/>
            <route edges="gneE0 gneE4 gneE5 gneE3"/>
        </routeDistribution>
    </vehicle>

    <vehicle id="veh172" type="default" depart="549.00" departPos="1.00" arrivalPos="80.00" arrivalSpeed="0.00" arrival="645.00">
        <routeDistribution>
            <route replacedOnEdge="" replacedAtTime="172.00" probability="0" edges="gneE0 gneE3"/>
            <route replacedOnEdge="" replacedAtTime="232.00" probability="0" edges="gneE0 gneE1 gneE2 gneE3"/>
            <route edges="gneE0 gneE4 gneE5 gneE3"/>
        </routeDistribution>
    </vehicle>

    <vehicle id="veh173" type="default" depart="552.00" departPos="1.00" arrivalPos="80.00" arrivalSpeed="0.00" arrival="649.00">
        <routeDistribution>
            <route replacedOnEdge="" replacedAtTime="173.00" probability="0" edges="gneE0 gneE3"/>
            <route replacedOnEdge="" replacedAtTime="233.00" probability="0" edges="gneE0 gneE1 gneE2 gneE3"/>
            <route edges="gneE0 gneE4 gneE5 gneE3"/>
        </routeDistribution>
    </vehicle>

    <vehicle id="veh174" type="default" depart="555.00" departPos="1.00" arrivalPos="80.00" arrivalSpeed="0.00" arrival="652.00">
        <routeDistribution>
            <route replacedOnEdge="" replacedAtTime="174.00" probability="0" edges="gneE0 gneE3"/>
            <route replacedOnEdge="" replacedAtTime="234.00" probability="0" edges="gneE0 gneE1 gneE2 gneE3"/>
            <route edges="gneE0 gneE4 gneE5 gneE3"/>
        </routeDistribution>
    </vehicle>

    <vehicle id="veh175" type="default" depart="559.00" departPos="1.00" arrivalPos="80.00" arrivalSpeed="0.00" arrival="655.00">
        <routeDistribution>
            <route replacedOnEdge="" replacedAtTime="175.00" probability="0" edges="gneE0 gneE3"/>
            <route replacedOnEdge="" replacedAtTime="235.00" probability="0" edges="gneE0 gneE1 gneE2 gneE3"/>
            <route edges="gneE0 gneE4 gneE5 gneE3"/>
        </routeDistribution>
    </vehicle>

    <vehicle id="veh176" type="default" depart="563.00" departPos="1.00" arrivalPos="80.00" arrivalSpeed="0.00" arrival="658.00">
        <routeDistribution>
            <route replacedOnEdge="" replacedAtTime="176.00" probability="0" edges="gneE0 gneE3"/>
            <route replacedOnEdge="" replacedAtTime="236.00" probability="0" edges="gneE0 gneE1 gneE2 gneE3"/>
            <route edges="gneE0 gneE4 gneE5 gneE3"/>
        </routeDistribution>
    </vehicle>

    <vehicle id="veh177" type="default" depart="569.00" departPos="1.00" arrivalPos="80.00" arrivalSpeed="0.00" arrival="661.00">
        <routeDistribution>
            <route replacedOnEdge="" replacedAtTime="177.00" probability="0" edges="gneE0 gneE3"/>
            <route replacedOnEdge="" replacedAtTime="237.00" probability="0" edges="gneE0 gneE1 gneE2 gneE3"/>
            <route edges="gneE0 gneE4 gneE5 gneE3"/>
        </routeDistribution>
    </vehicle>

    <vehicle id="veh178" type="default" depart="573.00" departPos="1.00" arrivalPos="80.00" arrivalSpeed="0.00" arrival="663.00">
        <routeDistribution>
            <route replacedOnEdge="" replacedAtTime="178.00" probability="0" edges="gneE0 gneE3"/>
            <route replacedOnEdge="" replacedAtTime="238.00" probability="0" edges="gneE0 gneE1 gneE2 gneE3"/>
            <route edges="gneE0 gneE4 gneE5 gneE3"/>
        </routeDistribution>
    </vehicle>

    <vehicle id="veh179" type="default" depart="576.00" departPos="1.00" arrivalPos="80.00" arrivalSpeed="0.00" arrival="666.00">
        <routeDistribution>
            <route replacedOnEdge="" replacedAtTime="179.00" probability="0" edges="gneE0 gneE3"/>
            <route replacedOnEdge="" replacedAtTime="239.00" probability="0" edges="gneE0 gneE1 gneE2 gneE3"/>
            <route edges="gneE0 gneE4 gneE5 gneE3"/>
        </routeDistribution>
    </vehicle>

    <vehicle id="veh180" type="default" depart="580.00" departPos="1.00" arrivalPos="80.00" arrivalSpeed="0.00" arrival="671.00">
        <routeDistribution>
            <route replacedOnEdge="" replacedAtTime="180.00" probability="0" edges="gneE0 gneE3"/>
            <route replacedOnEdge="" replacedAtTime="240.00" probability="0" edges="gneE0 gneE1 gneE2 gneE3"/>
            <route edges="gneE0 gneE4 gneE5 gneE3"/>
        </routeDistribution>
    </vehicle>

    <vehicle id="veh181" type="default" depart="583.00" departPos="1.00" arrivalPos="80.00" arrivalSpeed="0.00" arrival="677.00">
        <routeDistribution>
            <route replacedOnEdge="" replacedAtTime="181.00" probability="0" edges="gneE0 gneE3"/>
            <route replacedOnEdge="" replacedAtTime="241.00" probability="0" edges="gneE0 gneE1 gneE2 gneE3"/>
            <route edges="gneE0 gneE4 gneE5 gneE3"/>
        </routeDistribution>
    </vehicle>

    <vehicle id="veh182" type="default" depart="586.00" departPos="1.00" arrivalPos="80.00" arrivalSpeed="0.00" arrival="681.00">
        <routeDistribution>
            <route replacedOnEdge="" replacedAtTime="182.00" probability="0" edges="gneE0 gneE3"/>
            <route replacedOnEdge="" replacedAtTime="242.00" probability="0" edges="gneE0 gneE1 gneE2 gneE3"/>
            <route edges="gneE0 gneE4 gneE5 gneE3"/>
        </routeDistribution>
    </vehicle>

    <vehicle id="veh183" type="default" depart="590.00" departPos="1.00" arrivalPos="80.00" arrivalSpeed="0.00" arrival="684.00">
        <routeDistribution>
            <route replacedOnEdge="" replacedAtTime="183.00" probability="0" edges="gneE0 gneE3"/>
            <route replacedOnEdge="" replacedAtTime="243.00" probability="0" edges="gneE0 gneE1 gneE2 gneE3"/>
            <route edges="gneE0 gneE4 gneE5 gneE3"/>
        </routeDistribution>
    </vehicle>

    <vehicle id="veh184" type="default" depart="594.00" departPos="1.00" arrivalPos="80.00" arrivalSpeed="0.00" arrival="689.00">
        <routeDistribution>
            <route replacedOnEdge="" replacedAtTime="184.00" probability="0" edges="gneE0 gneE3"/>
            <route replacedOnEdge="" replacedAtTime="244.00" probability="0" edges="gneE0 gneE1 gneE2 gneE3"/>
            <route edges="gneE0 gneE4 gneE5 gneE3"/>
        </routeDistribution>
    </vehicle>

    <vehicle id="veh185" type="default" depart="597.00" departPos="1.00" arrivalPos="80.00" arrivalSpeed="0.00" arrival="692.00">
        <routeDistribution>
            <route replacedOnEdge="" replacedAtTime="185.00" probability="0" edges="gneE0 gneE3"/>
            <route replacedOnEdge="" replacedAtTime="245.00" probability="0" edges="gneE0 gneE1 gneE2 gneE3"/>
            <route edges="gneE0 gneE4 gneE5 gneE3"/>
        </routeDistribution>
    </vehicle>

    <vehicle id="veh186" type="default" depart="601.00" departPos="1.00" arrivalPos="80.00" arrivalSpeed="0.00" arrival="696.00">
        <routeDistribution>
            <route replacedOnEdge="" replacedAtTime="186.00" probability="0" edges="gneE0 gneE3"/>
            <route edges="gneE0 gneE4 gneE5 gneE3"/>
        </routeDistribution>
    </vehicle>

    <vehicle id="veh187" type="default" depart="606.00" departPos="1.00" arrivalPos="80.00" arrivalSpeed="0.00" arrival="699.00">
        <routeDistribution>
            <route replacedOnEdge="" replacedAtTime="187.00" probability="0" edges="gneE0 gneE3"/>
            <route edges="gneE0 gneE4 gneE5 gneE3"/>
        </routeDistribution>
    </vehicle>

    <vehicle id="veh188" type="default" depart="610.00" departPos="1.00" arrivalPos="80.00" arrivalSpeed="0.00" arrival="703.00">
        <routeDistribution>
            <route replacedOnEdge="" replacedAtTime="188.00" probability="0" edges="gneE0 gneE3"/>
            <route edges="gneE0 gneE4 gneE5 gneE3"/>
        </routeDistribution>
    </vehicle>

    <vehicle id="veh189" type="default" depart="614.00" departPos="1.00" arrivalPos="80.00" arrivalSpeed="0.00" arrival="708.00">
        <routeDistribution>
            <route replacedOnEdge="" replacedAtTime="189.00" probability="0" edges="gneE0 gneE3"/>
            <route edges="gneE0 gneE4 gneE5 gneE3"/>
        </routeDistribution>
    </vehicle>

    <vehicle id="veh190" type="default" depart="618.00" departPos="1.00" arrivalPos="80.00" arrivalSpeed="0.00" arrival="712.00">
        <routeDistribution>
            <route replacedOnEdge="" replacedAtTime="190.00" probability="0" edges="gneE0 gneE3"/>
            <route edges="gneE0 gneE4 gneE5 gneE3"/>
        </routeDistribution>
    </vehicle>

    <vehicle id="veh191" type="default" depart="621.00" departPos="1.00" arrivalPos="80.00" arrivalSpeed="0.00" arrival="715.00">
        <routeDistribution>
            <route replacedOnEdge="" replacedAtTime="191.00" probability="0" edges="gneE0 gneE3"/>
            <route edges="gneE0 gneE4 gneE5 gneE3"/>
        </routeDistribution>
    </vehicle>

    <vehicle id="veh192" type="default" depart="625.00" departPos="1.00" arrivalPos="80.00" arrivalSpeed="0.00" arrival="717.00">
        <routeDistribution>
            <route replacedOnEdge="" replacedAtTime="192.00" probability="0" edges="gneE0 gneE3"/>
            <route edges="gneE0 gneE4 gneE5 gneE3"/>
        </routeDistribution>
    </vehicle>

    <vehicle id="veh193" type="default" depart="629.00" departPos="1.00" arrivalPos="80.00" arrivalSpeed="0.00" arrival="721.00">
        <routeDistribution>
            <route replacedOnEdge="" replacedAtTime="193.00" probability="0" edges="gneE0 gneE3"/>
            <route edges="gneE0 gneE4 gneE5 gneE3"/>
        </routeDistribution>
    </vehicle>

    <vehicle id="veh194" type="default" depart="632.00" departPos="1.00" arrivalPos="80.00" arrivalSpeed="0.00" arrival="724.00">
        <routeDistribution>
            <route replacedOnEdge="" replacedAtTime="194.00" probability="0" edges="gneE0 gneE3"/>
            <route edges="gneE0 gneE4 gneE5 gneE3"/>
        </routeDistribution>
    </vehicle>

    <vehicle id="veh195" type="default" depart="637.00" departPos="1.00" arrivalPos="80.00" arrivalSpeed="0.00" arrival="729.00">
        <routeDistribution>
            <route replacedOnEdge="" replacedAtTime="195.00" probability="0" edges="gneE0 gneE3"/>
            <route edges="gneE0 gneE4 gneE5 gneE3"/>
        </routeDistribution>
    </vehicle>

    <vehicle id="veh196" type="default" depart="641.00" departPos="1.00" arrivalPos="80.00" arrivalSpeed="0.00" arrival="734.00">
        <routeDistribution>
            <route replacedOnEdge="" replacedAtTime="196.00" probability="0" edges="gneE0 gneE3"/>
            <route edges="gneE0 gneE4 gneE5 gneE3"/>
        </routeDistribution>
    </vehicle>

    <vehicle id="veh197" type="default" depart="644.00" departPos="1.00" arrivalPos="80.00" arrivalSpeed="0.00" arrival="739.00">