<?xml version="1.0" encoding="UTF-8"?>

<!-- generated on Wed Jan 30 17:44:07 2019 by Eclipse SUMO Version v1_1_0+0435-678c69824b
<configuration xmlns:xsi="http://www.w3.org/2001/XMLSchema-instance" xsi:noNamespaceSchemaLocation="http://sumo.dlr.de/xsd/sumoConfiguration.xsd">

    <input>
        <net-file value="input_net.net.xml"/>
        <load-state value="state.xml"/>
    </input>

    <output>
        <vehroute-output value="vehroutes2.xml"/>
    </output>

    <time>
        <begin value="500"/>
    </time>

    <report>
        <duration-log.disable value="true"/>
        <no-step-log value="true"/>
    </report>

</configuration>
-->

<routes xmlns:xsi="http://www.w3.org/2001/XMLSchema-instance" xsi:noNamespaceSchemaLocation="http://sumo.dlr.de/xsd/routes_file.xsd">
    <vehicle id="veh129" type="default" depart="410.00" departPos="1.00" arrivalPos="80.00" arrivalSpeed="0.00" arrival="500.00">
        <routeDistribution>
            <route replacedOnEdge="" reason="device.rerouting" replacedAtTime="129.00" probability="0" edges="gneE0 gneE3"/>
            <route replacedOnEdge="" reason="device.rerouting" replacedAtTime="189.00" probability="0" edges="gneE0 gneE4 gneE5 gneE3"/>
            <route replacedOnEdge="" reason="device.rerouting" replacedAtTime="309.00" probability="0" edges="gneE0 gneE1 gneE2 gneE3"/>
            <route edges="gneE0 gneE4 gneE5 gneE3"/>
        </routeDistribution>
    </vehicle>

    <vehicle id="veh130" type="default" depart="413.00" departPos="1.00" arrivalPos="80.00" arrivalSpeed="0.00" arrival="504.00">
        <routeDistribution>
            <route replacedOnEdge="" reason="device.rerouting" replacedAtTime="130.00" probability="0" edges="gneE0 gneE3"/>
            <route replacedOnEdge="" reason="device.rerouting" replacedAtTime="190.00" probability="0" edges="gneE0 gneE4 gneE5 gneE3"/>
            <route replacedOnEdge="" reason="device.rerouting" replacedAtTime="310.00" probability="0" edges="gneE0 gneE1 gneE2 gneE3"/>
            <route edges="gneE0 gneE4 gneE5 gneE3"/>
        </routeDistribution>
    </vehicle>

    <vehicle id="veh131" type="default" depart="416.00" departPos="1.00" arrivalPos="80.00" arrivalSpeed="0.00" arrival="506.00">
        <routeDistribution>
            <route replacedOnEdge="" reason="device.rerouting" replacedAtTime="131.00" probability="0" edges="gneE0 gneE3"/>
            <route replacedOnEdge="" reason="device.rerouting" replacedAtTime="191.00" probability="0" edges="gneE0 gneE4 gneE5 gneE3"/>
            <route replacedOnEdge="" reason="device.rerouting" replacedAtTime="311.00" probability="0" edges="gneE0 gneE1 gneE2 gneE3"/>
            <route edges="gneE0 gneE4 gneE5 gneE3"/>
        </routeDistribution>
    </vehicle>

    <vehicle id="veh132" type="default" depart="419.00" departPos="1.00" arrivalPos="80.00" arrivalSpeed="0.00" arrival="511.00">
        <routeDistribution>
            <route replacedOnEdge="" reason="device.rerouting" replacedAtTime="132.00" probability="0" edges="gneE0 gneE3"/>
            <route replacedOnEdge="" reason="device.rerouting" replacedAtTime="192.00" probability="0" edges="gneE0 gneE4 gneE5 gneE3"/>
            <route replacedOnEdge="" reason="device.rerouting" replacedAtTime="312.00" probability="0" edges="gneE0 gneE1 gneE2 gneE3"/>
            <route edges="gneE0 gneE4 gneE5 gneE3"/>
        </routeDistribution>
    </vehicle>

    <vehicle id="veh133" type="default" depart="422.00" departPos="1.00" arrivalPos="80.00" arrivalSpeed="0.00" arrival="516.00">
        <routeDistribution>
            <route replacedOnEdge="" reason="device.rerouting" replacedAtTime="133.00" probability="0" edges="gneE0 gneE3"/>
            <route replacedOnEdge="" reason="device.rerouting" replacedAtTime="193.00" probability="0" edges="gneE0 gneE4 gneE5 gneE3"/>
            <route replacedOnEdge="" reason="device.rerouting" replacedAtTime="313.00" probability="0" edges="gneE0 gneE1 gneE2 gneE3"/>
            <route edges="gneE0 gneE4 gneE5 gneE3"/>
        </routeDistribution>
    </vehicle>

    <vehicle id="veh134" type="default" depart="425.00" departPos="1.00" arrivalPos="80.00" arrivalSpeed="0.00" arrival="520.00">
        <routeDistribution>
            <route replacedOnEdge="" reason="device.rerouting" replacedAtTime="134.00" probability="0" edges="gneE0 gneE3"/>
            <route replacedOnEdge="" reason="device.rerouting" replacedAtTime="194.00" probability="0" edges="gneE0 gneE4 gneE5 gneE3"/>
            <route replacedOnEdge="" reason="device.rerouting" replacedAtTime="314.00" probability="0" edges="gneE0 gneE1 gneE2 gneE3"/>
            <route edges="gneE0 gneE4 gneE5 gneE3"/>
        </routeDistribution>
    </vehicle>

    <vehicle id="veh135" type="default" depart="428.00" departPos="1.00" arrivalPos="80.00" arrivalSpeed="0.00" arrival="524.00">
        <routeDistribution>
            <route replacedOnEdge="" reason="device.rerouting" replacedAtTime="135.00" probability="0" edges="gneE0 gneE3"/>
            <route replacedOnEdge="" reason="device.rerouting" replacedAtTime="195.00" probability="0" edges="gneE0 gneE4 gneE5 gneE3"/>
            <route replacedOnEdge="" reason="device.rerouting" replacedAtTime="315.00" probability="0" edges="gneE0 gneE1 gneE2 gneE3"/>
            <route edges="gneE0 gneE4 gneE5 gneE3"/>
        </routeDistribution>
    </vehicle>

    <vehicle id="veh136" type="default" depart="431.00" departPos="1.00" arrivalPos="80.00" arrivalSpeed="0.00" arrival="529.00">
        <routeDistribution>
            <route replacedOnEdge="" reason="device.rerouting" replacedAtTime="136.00" probability="0" edges="gneE0 gneE3"/>
            <route replacedOnEdge="" reason="device.rerouting" replacedAtTime="196.00" probability="0" edges="gneE0 gneE4 gneE5 gneE3"/>
            <route replacedOnEdge="" reason="device.rerouting" replacedAtTime="316.00" probability="0" edges="gneE0 gneE1 gneE2 gneE3"/>
            <route edges="gneE0 gneE4 gneE5 gneE3"/>
        </routeDistribution>
    </vehicle>

    <vehicle id="veh137" type="default" depart="434.00" departPos="1.00" arrivalPos="80.00" arrivalSpeed="0.00" arrival="533.00">
        <routeDistribution>
            <route replacedOnEdge="" reason="device.rerouting" replacedAtTime="137.00" probability="0" edges="gneE0 gneE3"/>
            <route replacedOnEdge="" reason="device.rerouting" replacedAtTime="197.00" probability="0" edges="gneE0 gneE4 gneE5 gneE3"/>
            <route replacedOnEdge="" reason="device.rerouting" replacedAtTime="317.00" probability="0" edges="gneE0 gneE1 gneE2 gneE3"/>
            <route edges="gneE0 gneE4 gneE5 gneE3"/>
        </routeDistribution>
    </vehicle>

    <vehicle id="veh138" type="default" depart="437.00" departPos="1.00" arrivalPos="80.00" arrivalSpeed="0.00" arrival="537.00">
        <routeDistribution>
            <route replacedOnEdge="" reason="device.rerouting" replacedAtTime="138.00" probability="0" edges="gneE0 gneE3"/>
            <route replacedOnEdge="" reason="device.rerouting" replacedAtTime="198.00" probability="0" edges="gneE0 gneE4 gneE5 gneE3"/>
            <route replacedOnEdge="" reason="device.rerouting" replacedAtTime="318.00" probability="0" edges="gneE0 gneE1 gneE2 gneE3"/>
            <route edges="gneE0 gneE4 gneE5 gneE3"/>
        </routeDistribution>
    </vehicle>

    <vehicle id="veh139" type="default" depart="440.00" departPos="1.00" arrivalPos="80.00" arrivalSpeed="0.00" arrival="540.00">
        <routeDistribution>
            <route replacedOnEdge="" reason="device.rerouting" replacedAtTime="139.00" probability="0" edges="gneE0 gneE3"/>
            <route replacedOnEdge="" reason="device.rerouting" replacedAtTime="199.00" probability="0" edges="gneE0 gneE4 gneE5 gneE3"/>
            <route replacedOnEdge="" reason="device.rerouting" replacedAtTime="319.00" probability="0" edges="gneE0 gneE1 gneE2 gneE3"/>
            <route edges="gneE0 gneE4 gneE5 gneE3"/>
        </routeDistribution>
    </vehicle>

    <vehicle id="veh140" type="default" depart="443.00" departPos="1.00" arrivalPos="80.00" arrivalSpeed="0.00" arrival="545.00">
        <routeDistribution>
            <route replacedOnEdge="" reason="device.rerouting" replacedAtTime="140.00" probability="0" edges="gneE0 gneE3"/>
            <route replacedOnEdge="" reason="device.rerouting" replacedAtTime="200.00" probability="0" edges="gneE0 gneE4 gneE5 gneE3"/>
            <route replacedOnEdge="" reason="device.rerouting" replacedAtTime="320.00" probability="0" edges="gneE0 gneE1 gneE2 gneE3"/>
            <route edges="gneE0 gneE4 gneE5 gneE3"/>
        </routeDistribution>
    </vehicle>

    <vehicle id="veh141" type="default" depart="446.00" departPos="1.00" arrivalPos="80.00" arrivalSpeed="0.00" arrival="550.00">
        <routeDistribution>
            <route replacedOnEdge="" reason="device.rerouting" replacedAtTime="141.00" probability="0" edges="gneE0 gneE3"/>
            <route replacedOnEdge="" reason="device.rerouting" replacedAtTime="201.00" probability="0" edges="gneE0 gneE4 gneE5 gneE3"/>
            <route replacedOnEdge="" reason="device.rerouting" replacedAtTime="321.00" probability="0" edges="gneE0 gneE1 gneE2 gneE3"/>
            <route edges="gneE0 gneE4 gneE5 gneE3"/>
        </routeDistribution>
    </vehicle>

    <vehicle id="veh142" type="default" depart="449.00" departPos="1.00" arrivalPos="80.00" arrivalSpeed="0.00" arrival="554.00">
        <routeDistribution>
            <route replacedOnEdge="" reason="device.rerouting" replacedAtTime="142.00" probability="0" edges="gneE0 gneE3"/>
            <route replacedOnEdge="" reason="device.rerouting" replacedAtTime="202.00" probability="0" edges="gneE0 gneE4 gneE5 gneE3"/>
            <route replacedOnEdge="" reason="device.rerouting" replacedAtTime="322.00" probability="0" edges="gneE0 gneE1 gneE2 gneE3"/>
            <route edges="gneE0 gneE4 gneE5 gneE3"/>
        </routeDistribution>
    </vehicle>

    <vehicle id="veh143" type="default" depart="452.00" departPos="1.00" arrivalPos="80.00" arrivalSpeed="0.00" arrival="557.00">
        <routeDistribution>
            <route replacedOnEdge="" reason="device.rerouting" replacedAtTime="143.00" probability="0" edges="gneE0 gneE3"/>
            <route replacedOnEdge="" reason="device.rerouting" replacedAtTime="203.00" probability="0" edges="gneE0 gneE4 gneE5 gneE3"/>
            <route replacedOnEdge="" reason="device.rerouting" replacedAtTime="323.00" probability="0" edges="gneE0 gneE1 gneE2 gneE3"/>
            <route edges="gneE0 gneE4 gneE5 gneE3"/>
        </routeDistribution>
    </vehicle>

    <vehicle id="veh144" type="default" depart="455.00" departPos="1.00" arrivalPos="80.00" arrivalSpeed="0.00" arrival="560.00">
        <routeDistribution>
            <route replacedOnEdge="" reason="device.rerouting" replacedAtTime="144.00" probability="0" edges="gneE0 gneE3"/>
            <route replacedOnEdge="" reason="device.rerouting" replacedAtTime="204.00" probability="0" edges="gneE0 gneE4 gneE5 gneE3"/>
            <route replacedOnEdge="" reason="device.rerouting" replacedAtTime="324.00" probability="0" edges="gneE0 gneE1 gneE2 gneE3"/>
            <route edges="gneE0 gneE4 gneE5 gneE3"/>
        </routeDistribution>
    </vehicle>

    <vehicle id="veh145" type="default" depart="458.00" departPos="1.00" arrivalPos="80.00" arrivalSpeed="0.00" arrival="563.00">
        <routeDistribution>
            <route replacedOnEdge="" reason="device.rerouting" replacedAtTime="145.00" probability="0" edges="gneE0 gneE3"/>
            <route replacedOnEdge="" reason="device.rerouting" replacedAtTime="205.00" probability="0" edges="gneE0 gneE4 gneE5 gneE3"/>
            <route replacedOnEdge="" reason="device.rerouting" replacedAtTime="325.00" probability="0" edges="gneE0 gneE1 gneE2 gneE3"/>
            <route edges="gneE0 gneE4 gneE5 gneE3"/>
        </routeDistribution>
    </vehicle>

    <vehicle id="veh146" type="default" depart="461.00" departPos="1.00" arrivalPos="80.00" arrivalSpeed="0.00" arrival="568.00">
        <routeDistribution>
            <route replacedOnEdge="" reason="device.rerouting" replacedAtTime="146.00" probability="0" edges="gneE0 gneE3"/>
            <route replacedOnEdge="" reason="device.rerouting" replacedAtTime="206.00" probability="0" edges="gneE0 gneE4 gneE5 gneE3"/>
            <route replacedOnEdge="" reason="device.rerouting" replacedAtTime="326.00" probability="0" edges="gneE0 gneE1 gneE2 gneE3"/>
            <route edges="gneE0 gneE4 gneE5 gneE3"/>
        </routeDistribution>
    </vehicle>

    <vehicle id="veh147" type="default" depart="464.00" departPos="1.00" arrivalPos="80.00" arrivalSpeed="0.00" arrival="572.00">
        <routeDistribution>
            <route replacedOnEdge="" reason="device.rerouting" replacedAtTime="147.00" probability="0" edges="gneE0 gneE3"/>
            <route replacedOnEdge="" reason="device.rerouting" replacedAtTime="207.00" probability="0" edges="gneE0 gneE4 gneE5 gneE3"/>
            <route replacedOnEdge="" reason="device.rerouting" replacedAtTime="327.00" probability="0" edges="gneE0 gneE1 gneE2 gneE3"/>
            <route edges="gneE0 gneE4 gneE5 gneE3"/>
        </routeDistribution>
    </vehicle>

    <vehicle id="veh148" type="default" depart="467.00" departPos="1.00" arrivalPos="80.00" arrivalSpeed="0.00" arrival="575.00">
        <routeDistribution>
            <route replacedOnEdge="" reason="device.rerouting" replacedAtTime="148.00" probability="0" edges="gneE0 gneE3"/>
            <route replacedOnEdge="" reason="device.rerouting" replacedAtTime="208.00" probability="0" edges="gneE0 gneE4 gneE5 gneE3"/>
            <route replacedOnEdge="" reason="device.rerouting" replacedAtTime="328.00" probability="0" edges="gneE0 gneE1 gneE2 gneE3"/>
            <route edges="gneE0 gneE4 gneE5 gneE3"/>
        </routeDistribution>
    </vehicle>

    <vehicle id="veh149" type="default" depart="470.00" departPos="1.00" arrivalPos="80.00" arrivalSpeed="0.00" arrival="578.00">
        <routeDistribution>
            <route replacedOnEdge="" reason="device.rerouting" replacedAtTime="149.00" probability="0" edges="gneE0 gneE3"/>
            <route replacedOnEdge="" reason="device.rerouting" replacedAtTime="209.00" probability="0" edges="gneE0 gneE4 gneE5 gneE3"/>
            <route replacedOnEdge="" reason="device.rerouting" replacedAtTime="329.00" probability="0" edges="gneE0 gneE1 gneE2 gneE3"/>
            <route edges="gneE0 gneE4 gneE5 gneE3"/>
        </routeDistribution>
    </vehicle>

    <vehicle id="veh150" type="default" depart="473.00" departPos="1.00" arrivalPos="80.00" arrivalSpeed="0.00" arrival="582.00">
        <routeDistribution>
            <route replacedOnEdge="" reason="device.rerouting" replacedAtTime="150.00" probability="0" edges="gneE0 gneE3"/>
            <route replacedOnEdge="" reason="device.rerouting" replacedAtTime="330.00" probability="0" edges="gneE0 gneE1 gneE2 gneE3"/>
            <route edges="gneE0 gneE4 gneE5 gneE3"/>
        </routeDistribution>
    </vehicle>

    <vehicle id="veh151" type="default" depart="476.00" departPos="1.00" arrivalPos="80.00" arrivalSpeed="0.00" arrival="587.00">
        <routeDistribution>
            <route replacedOnEdge="" reason="device.rerouting" replacedAtTime="151.00" probability="0" edges="gneE0 gneE3"/>
            <route replacedOnEdge="" reason="device.rerouting" replacedAtTime="211.00" probability="0" edges="gneE0 gneE4 gneE5 gneE3"/>
            <route replacedOnEdge="" reason="device.rerouting" replacedAtTime="331.00" probability="0" edges="gneE0 gneE1 gneE2 gneE3"/>
            <route edges="gneE0 gneE4 gneE5 gneE3"/>
        </routeDistribution>
    </vehicle>

    <vehicle id="veh152" type="default" depart="479.00" departPos="1.00" arrivalPos="80.00" arrivalSpeed="0.00" arrival="592.00">
        <routeDistribution>
            <route replacedOnEdge="" reason="device.rerouting" replacedAtTime="152.00" probability="0" edges="gneE0 gneE3"/>
            <route replacedOnEdge="" reason="device.rerouting" replacedAtTime="332.00" probability="0" edges="gneE0 gneE1 gneE2 gneE3"/>
            <route edges="gneE0 gneE4 gneE5 gneE3"/>
        </routeDistribution>
    </vehicle>

    <vehicle id="veh153" type="default" depart="485.00" departPos="1.00" arrivalPos="80.00" arrivalSpeed="0.00" arrival="598.00">
        <routeDistribution>
            <route replacedOnEdge="" reason="device.rerouting" replacedAtTime="153.00" probability="0" edges="gneE0 gneE3"/>
            <route replacedOnEdge="" reason="device.rerouting" replacedAtTime="333.00" probability="0" edges="gneE0 gneE1 gneE2 gneE3"/>
            <route edges="gneE0 gneE4 gneE5 gneE3"/>
        </routeDistribution>
    </vehicle>

    <vehicle id="veh154" type="default" depart="489.00" departPos="1.00" arrivalPos="80.00" arrivalSpeed="0.00" arrival="602.00">
        <routeDistribution>
            <route replacedOnEdge="" reason="device.rerouting" replacedAtTime="154.00" probability="0" edges="gneE0 gneE3"/>
            <route replacedOnEdge="" reason="device.rerouting" replacedAtTime="214.00" probability="0" edges="gneE0 gneE4 gneE5 gneE3"/>
            <route replacedOnEdge="" reason="device.rerouting" replacedAtTime="334.00" probability="0" edges="gneE0 gneE1 gneE2 gneE3"/>
            <route edges="gneE0 gneE4 gneE5 gneE3"/>
        </routeDistribution>
    </vehicle>

    <vehicle id="veh155" type="default" depart="492.00" departPos="1.00" arrivalPos="80.00" arrivalSpeed="0.00" arrival="606.00">
        <routeDistribution>
            <route replacedOnEdge="" reason="device.rerouting" replacedAtTime="155.00" probability="0" edges="gneE0 gneE3"/>
            <route replacedOnEdge="" reason="device.rerouting" replacedAtTime="335.00" probability="0" edges="gneE0 gneE1 gneE2 gneE3"/>
            <route edges="gneE0 gneE4 gneE5 gneE3"/>
        </routeDistribution>
    </vehicle>

    <vehicle id="veh156" type="default" depart="497.00" departPos="1.00" arrivalPos="80.00" arrivalSpeed="0.00" arrival="610.00">
        <routeDistribution>
            <route replacedOnEdge="" reason="device.rerouting" replacedAtTime="156.00" probability="0" edges="gneE0 gneE3"/>
            <route replacedOnEdge="" reason="device.rerouting" replacedAtTime="336.00" probability="0" edges="gneE0 gneE1 gneE2 gneE3"/>
            <route edges="gneE0 gneE4 gneE5 gneE3"/>
        </routeDistribution>
    </vehicle>

    <vehicle id="veh157" type="default" depart="501.00" departPos="1.00" arrivalPos="80.00" arrivalSpeed="0.00" arrival="614.00">
        <routeDistribution>
            <route replacedOnEdge="" reason="device.rerouting" replacedAtTime="157.00" probability="0" edges="gneE0 gneE3"/>
            <route replacedOnEdge="" reason="device.rerouting" replacedAtTime="337.00" probability="0" edges="gneE0 gneE1 gneE2 gneE3"/>
            <route edges="gneE0 gneE4 gneE5 gneE3"/>
        </routeDistribution>
    </vehicle>

    <vehicle id="veh158" type="default" depart="506.00" departPos="1.00" arrivalPos="80.00" arrivalSpeed="0.00" arrival="617.00">
        <routeDistribution>
            <route replacedOnEdge="" reason="device.rerouting" replacedAtTime="158.00" probability="0" edges="gneE0 gneE3"/>
            <route replacedOnEdge="" reason="device.rerouting" replacedAtTime="338.00" probability="0" edges="gneE0 gneE1 gneE2 gneE3"/>
            <route edges="gneE0 gneE4 gneE5 gneE3"/>
        </routeDistribution>
    </vehicle>

    <vehicle id="veh159" type="default" depart="510.00" departPos="1.00" arrivalPos="80.00" arrivalSpeed="0.00" arrival="620.00">
        <routeDistribution>
            <route replacedOnEdge="" reason="device.rerouting" replacedAtTime="159.00" probability="0" edges="gneE0 gneE3"/>
            <route replacedOnEdge="" reason="device.rerouting" replacedAtTime="219.00" probability="0" edges="gneE0 gneE4 gneE5 gneE3"/>
            <route replacedOnEdge="" reason="device.rerouting" replacedAtTime="339.00" probability="0" edges="gneE0 gneE1 gneE2 gneE3"/>
            <route edges="gneE0 gneE4 gneE5 gneE3"/>
        </routeDistribution>
    </vehicle>

    <vehicle id="veh160" type="default" depart="516.00" departPos="1.00" arrivalPos="80.00" arrivalSpeed="0.00" arrival="622.00">
        <routeDistribution>
            <route replacedOnEdge="" reason="device.rerouting" replacedAtTime="160.00" probability="0" edges="gneE0 gneE3"/>
            <route replacedOnEdge="" reason="device.rerouting" replacedAtTime="340.00" probability="0" edges="gneE0 gneE1 gneE2 gneE3"/>
            <route edges="gneE0 gneE4 gneE5 gneE3"/>
        </routeDistribution>
    </vehicle>

    <vehicle id="veh161" type="default" depart="522.00" departPos="1.00" arrivalPos="80.00" arrivalSpeed="0.00" arrival="625.00">
        <routeDistribution>
            <route replacedOnEdge="" reason="device.rerouting" replacedAtTime="161.00" probability="0" edges="gneE0 gneE3"/>
            <route replacedOnEdge="" reason="device.rerouting" replacedAtTime="221.00" probability="0" edges="gneE0 gneE4 gneE5 gneE3"/>
            <route replacedOnEdge="" reason="device.rerouting" replacedAtTime="341.00" probability="0" edges="gneE0 gneE1 gneE2 gneE3"/>
            <route edges="gneE0 gneE4 gneE5 gneE3"/>
        </routeDistribution>
    </vehicle>

    <vehicle id="veh162" type="default" depart="525.00" departPos="1.00" arrivalPos="80.00" arrivalSpeed="0.00" arrival="628.00">
        <routeDistribution>
            <route replacedOnEdge="" reason="device.rerouting" replacedAtTime="162.00" probability="0" edges="gneE0 gneE3"/>
            <route replacedOnEdge="" reason="device.rerouting" replacedAtTime="342.00" probability="0" edges="gneE0 gneE1 gneE2 gneE3"/>
            <route edges="gneE0 gneE4 gneE5 gneE3"/>
        </routeDistribution>
    </vehicle>

    <vehicle id="veh163" type="default" depart="529.00" departPos="1.00" arrivalPos="80.00" arrivalSpeed="0.00" arrival="633.00">
        <routeDistribution>
            <route replacedOnEdge="" reason="device.rerouting" replacedAtTime="163.00" probability="0" edges="gneE0 gneE3"/>
            <route replacedOnEdge="" reason="device.rerouting" replacedAtTime="283.00" probability="0" edges="gneE0 gneE1 gneE2 gneE3"/>
            <route edges="gneE0 gneE4 gneE5 gneE3"/>
        </routeDistribution>
    </vehicle>

    <vehicle id="veh164" type="default" depart="532.00" departPos="1.00" arrivalPos="80.00" arrivalSpeed="0.00" arrival="637.00">
        <routeDistribution>
            <route replacedOnEdge="" reason="device.rerouting" replacedAtTime="164.00" probability="0" edges="gneE0 gneE3"/>
            <route replacedOnEdge="" reason="device.rerouting" replacedAtTime="284.00" probability="0" edges="gneE0 gneE1 gneE2 gneE3"/>
            <route edges="gneE0 gneE4 gneE5 gneE3"/>
        </routeDistribution>
    </vehicle>

    <vehicle id="veh165" type="default" depart="536.00" departPos="1.00" arrivalPos="80.00" arrivalSpeed="0.00" arrival="640.00">
        <routeDistribution>
            <route replacedOnEdge="" reason="device.rerouting" replacedAtTime="165.00" probability="0" edges="gneE0 gneE3"/>
            <route replacedOnEdge="" reason="device.rerouting" replacedAtTime="285.00" probability="0" edges="gneE0 gneE1 gneE2 gneE3"/>
            <route edges="gneE0 gneE4 gneE5 gneE3"/>
        </routeDistribution>
    </vehicle>

    <vehicle id="veh166" type="default" depart="540.00" departPos="1.00" arrivalPos="80.00" arrivalSpeed="0.00" arrival="644.00">
        <routeDistribution>
            <route replacedOnEdge="" reason="device.rerouting" replacedAtTime="166.00" probability="0" edges="gneE0 gneE3"/>
            <route replacedOnEdge="" reason="device.rerouting" replacedAtTime="226.00" probability="0" edges="gneE0 gneE4 gneE5 gneE3"/>
            <route replacedOnEdge="" reason="device.rerouting" replacedAtTime="286.00" probability="0" edges="gneE0 gneE1 gneE2 gneE3"/>
            <route edges="gneE0 gneE4 gneE5 gneE3"/>
        </routeDistribution>
    </vehicle>

    <vehicle id="veh167" type="default" depart="545.00" departPos="1.00" arrivalPos="80.00" arrivalSpeed="0.00" arrival="649.00">
        <routeDistribution>
            <route replacedOnEdge="" reason="device.rerouting" replacedAtTime="167.00" probability="0" edges="gneE0 gneE3"/>
            <route replacedOnEdge="" reason="device.rerouting" replacedAtTime="287.00" probability="0" edges="gneE0 gneE1 gneE2 gneE3"/>
            <route edges="gneE0 gneE4 gneE5 gneE3"/>
        </routeDistribution>
    </vehicle>

    <vehicle id="veh168" type="default" depart="549.00" departPos="1.00" arrivalPos="80.00" arrivalSpeed="0.00" arrival="654.00">
        <routeDistribution>
            <route replacedOnEdge="" reason="device.rerouting" replacedAtTime="168.00" probability="0" edges="gneE0 gneE3"/>
            <route replacedOnEdge="" reason="device.rerouting" replacedAtTime="288.00" probability="0" edges="gneE0 gneE1 gneE2 gneE3"/>
            <route edges="gneE0 gneE4 gneE5 gneE3"/>
        </routeDistribution>
    </vehicle>

    <vehicle id="veh169" type="default" depart="552.00" departPos="1.00" arrivalPos="80.00" arrivalSpeed="0.00" arrival="657.00">
        <routeDistribution>
            <route replacedOnEdge="" reason="device.rerouting" replacedAtTime="169.00" probability="0" edges="gneE0 gneE3"/>
            <route replacedOnEdge="" reason="device.rerouting" replacedAtTime="289.00" probability="0" edges="gneE0 gneE1 gneE2 gneE3"/>
            <route edges="gneE0 gneE4 gneE5 gneE3"/>
        </routeDistribution>
    </vehicle>

    <vehicle id="veh170" type="default" depart="556.00" departPos="1.00" arrivalPos="80.00" arrivalSpeed="0.00" arrival="660.00">
        <routeDistribution>
            <route replacedOnEdge="" reason="device.rerouting" replacedAtTime="170.00" probability="0" edges="gneE0 gneE3"/>
            <route replacedOnEdge="" reason="device.rerouting" replacedAtTime="290.00" probability="0" edges="gneE0 gneE1 gneE2 gneE3"/>
            <route edges="gneE0 gneE4 gneE5 gneE3"/>
        </routeDistribution>
    </vehicle>

    <vehicle id="veh171" type="default" depart="561.00" departPos="1.00" arrivalPos="80.00" arrivalSpeed="0.00" arrival="663.00">
        <routeDistribution>
            <route replacedOnEdge="" reason="device.rerouting" replacedAtTime="171.00" probability="0" edges="gneE0 gneE3"/>
            <route replacedOnEdge="" reason="device.rerouting" replacedAtTime="291.00" probability="0" edges="gneE0 gneE1 gneE2 gneE3"/>
            <route edges="gneE0 gneE4 gneE5 gneE3"/>
        </routeDistribution>
    </vehicle>

    <vehicle id="veh172" type="default" depart="564.00" departPos="1.00" arrivalPos="80.00" arrivalSpeed="0.00" arrival="667.00">
        <routeDistribution>
            <route replacedOnEdge="" reason="device.rerouting" replacedAtTime="172.00" probability="0" edges="gneE0 gneE3"/>
            <route replacedOnEdge="" reason="device.rerouting" replacedAtTime="292.00" probability="0" edges="gneE0 gneE1 gneE2 gneE3"/>
            <route edges="gneE0 gneE4 gneE5 gneE3"/>
        </routeDistribution>
    </vehicle>

    <vehicle id="veh96" type="default" depart="295.00" departPos="1.00" arrivalPos="80.00" arrivalSpeed="0.00" arrival="667.00">
        <routeDistribution>
            <route replacedOnEdge="" reason="device.rerouting" replacedAtTime="96.00" probability="0" edges="gneE0 gneE3"/>
            <route replacedOnEdge="" reason="device.rerouting" replacedAtTime="156.00" probability="0" edges="gneE0 gneE4 gneE5 gneE3"/>
            <route edges="gneE0 gneE1 gneE2 gneE3"/>
        </routeDistribution>
    </vehicle>

    <vehicle id="veh173" type="default" depart="569.00" departPos="1.00" arrivalPos="80.00" arrivalSpeed="0.00" arrival="671.00">
        <routeDistribution>
            <route replacedOnEdge="" reason="device.rerouting" replacedAtTime="173.00" probability="0" edges="gneE0 gneE3"/>
            <route replacedOnEdge="" reason="device.rerouting" replacedAtTime="293.00" probability="0" edges="gneE0 gneE1 gneE2 gneE3"/>
            <route edges="gneE0 gneE4 gneE5 gneE3"/>
        </routeDistribution>
    </vehicle>

    <vehicle id="veh174" type="default" depart="573.00" departPos="1.00" arrivalPos="80.00" arrivalSpeed="0.00" arrival="676.00">
        <routeDistribution>
            <route replacedOnEdge="" reason="device.rerouting" replacedAtTime="174.00" probability="0" edges="gneE0 gneE3"/>
            <route replacedOnEdge="" reason="device.rerouting" replacedAtTime="294.00" probability="0" edges="gneE0 gneE1 gneE2 gneE3"/>
            <route edges="gneE0 gneE4 gneE5 gneE3"/>
        </routeDistribution>
    </vehicle>

    <vehicle id="veh175" type="default" depart="577.00" departPos="1.00" arrivalPos="80.00" arrivalSpeed="0.00" arrival="680.00">
        <routeDistribution>
            <route replacedOnEdge="" reason="device.rerouting" replacedAtTime="175.00" probability="0" edges="gneE0 gneE3"/>
            <route replacedOnEdge="" reason="device.rerouting" replacedAtTime="295.00" probability="0" edges="gneE0 gneE1 gneE2 gneE3"/>
            <route edges="gneE0 gneE4 gneE5 gneE3"/>
        </routeDistribution>
    </vehicle>

    <vehicle id="veh176" type="default" depart="581.00" departPos="1.00" arrivalPos="80.00" arrivalSpeed="0.00" arrival="683.00">
        <routeDistribution>
            <route replacedOnEdge="" reason="device.rerouting" replacedAtTime="176.00" probability="0" edges="gneE0 gneE3"/>
            <route replacedOnEdge="" reason="device.rerouting" replacedAtTime="296.00" probability="0" edges="gneE0 gneE1 gneE2 gneE3"/>
            <route edges="gneE0 gneE4 gneE5 gneE3"/>
        </routeDistribution>
    </vehicle>

    <vehicle id="veh177" type="default" depart="585.00" departPos="1.00" arrivalPos="80.00" arrivalSpeed="0.00" arrival="688.00">
        <routeDistribution>