<?xml version="1.0" encoding="UTF-8"?>

<!-- generated on Wed Nov 21 07:54:48 2018 by Eclipse SUMO Version v1_0_1+0645-93703db
<configuration xmlns:xsi="http://www.w3.org/2001/XMLSchema-instance" xsi:noNamespaceSchemaLocation="http://sumo.dlr.de/xsd/sumoConfiguration.xsd">

    <input>
        <net-file value="input_net.net.xml"/>
        <route-files value="input_routes.rou.xml"/>
    </input>

    <output>
        <vehroute-output value="vehroutes.xml"/>
        <save-state.times value="500"/>
        <save-state.files value="state.xml"/>
    </output>

    <report>
        <duration-log.disable value="true"/>
        <no-step-log value="true"/>
    </report>

</configuration>
-->

<routes xmlns:xsi="http://www.w3.org/2001/XMLSchema-instance" xsi:noNamespaceSchemaLocation="http://sumo.dlr.de/xsd/routes_file.xsd">
    <vehicle id="veh1" type="default" depart="1.00" departPos="1.00" arrivalPos="80.00" arrivalSpeed="0.00" arrival="29.00">
        <routeDistribution>
            <route replacedOnEdge="" reason="device.rerouting" replacedAtTime="1.00" probability="0" edges="gneE0 gneE3"/>
            <route edges="gneE0 gneE1 gneE2 gneE3"/>
        </routeDistribution>
    </vehicle>

    <vehicle id="veh2" type="default" depart="4.00" departPos="1.00" arrivalPos="80.00" arrivalSpeed="0.00" arrival="34.00">
        <routeDistribution>
            <route replacedOnEdge="" reason="device.rerouting" replacedAtTime="2.00" probability="0" edges="gneE0 gneE3"/>
            <route edges="gneE0 gneE1 gneE2 gneE3"/>
        </routeDistribution>
    </vehicle>

    <vehicle id="veh3" type="default" depart="7.00" departPos="1.00" arrivalPos="80.00" arrivalSpeed="0.00" arrival="37.00">
        <routeDistribution>
            <route replacedOnEdge="" reason="device.rerouting" replacedAtTime="3.00" probability="0" edges="gneE0 gneE3"/>
            <route edges="gneE0 gneE1 gneE2 gneE3"/>
        </routeDistribution>
    </vehicle>

    <vehicle id="veh4" type="default" depart="10.00" departPos="1.00" arrivalPos="80.00" arrivalSpeed="0.00" arrival="41.00">
        <routeDistribution>
            <route replacedOnEdge="" reason="device.rerouting" replacedAtTime="4.00" probability="0" edges="gneE0 gneE3"/>
            <route edges="gneE0 gneE1 gneE2 gneE3"/>
        </routeDistribution>
    </vehicle>

    <vehicle id="veh5" type="default" depart="13.00" departPos="1.00" arrivalPos="80.00" arrivalSpeed="0.00" arrival="46.00">
        <routeDistribution>
            <route replacedOnEdge="" reason="device.rerouting" replacedAtTime="5.00" probability="0" edges="gneE0 gneE3"/>
            <route edges="gneE0 gneE1 gneE2 gneE3"/>
        </routeDistribution>
    </vehicle>

    <vehicle id="veh6" type="default" depart="16.00" departPos="1.00" arrivalPos="80.00" arrivalSpeed="0.00" arrival="49.00">
        <routeDistribution>
            <route replacedOnEdge="" reason="device.rerouting" replacedAtTime="6.00" probability="0" edges="gneE0 gneE3"/>
            <route edges="gneE0 gneE1 gneE2 gneE3"/>
        </routeDistribution>
    </vehicle>

    <vehicle id="veh7" type="default" depart="19.00" departPos="1.00" arrivalPos="80.00" arrivalSpeed="0.00" arrival="52.00">
        <routeDistribution>
            <route replacedOnEdge="" reason="device.rerouting" replacedAtTime="7.00" probability="0" edges="gneE0 gneE3"/>
            <route edges="gneE0 gneE1 gneE2 gneE3"/>
        </routeDistribution>
    </vehicle>

    <vehicle id="veh8" type="default" depart="22.00" departPos="1.00" arrivalPos="80.00" arrivalSpeed="0.00" arrival="56.00">
        <routeDistribution>
            <route replacedOnEdge="" reason="device.rerouting" replacedAtTime="8.00" probability="0" edges="gneE0 gneE3"/>
            <route edges="gneE0 gneE1 gneE2 gneE3"/>
        </routeDistribution>
    </vehicle>

    <vehicle id="veh9" type="default" depart="25.00" departPos="1.00" arrivalPos="80.00" arrivalSpeed="0.00" arrival="60.00">
        <routeDistribution>
            <route replacedOnEdge="" reason="device.rerouting" replacedAtTime="9.00" probability="0" edges="gneE0 gneE3"/>
            <route edges="gneE0 gneE1 gneE2 gneE3"/>
        </routeDistribution>
    </vehicle>

    <vehicle id="veh10" type="default" depart="28.00" departPos="1.00" arrivalPos="80.00" arrivalSpeed="0.00" arrival="64.00">
        <routeDistribution>
            <route replacedOnEdge="" reason="device.rerouting" replacedAtTime="10.00" probability="0" edges="gneE0 gneE3"/>
            <route edges="gneE0 gneE1 gneE2 gneE3"/>
        </routeDistribution>
    </vehicle>

    <vehicle id="veh11" type="default" depart="31.00" departPos="1.00" arrivalPos="80.00" arrivalSpeed="0.00" arrival="68.00">
        <routeDistribution>
            <route replacedOnEdge="" reason="device.rerouting" replacedAtTime="11.00" probability="0" edges="gneE0 gneE3"/>
            <route edges="gneE0 gneE1 gneE2 gneE3"/>
        </routeDistribution>
    </vehicle>

    <vehicle id="veh12" type="default" depart="34.00" departPos="1.00" arrivalPos="80.00" arrivalSpeed="0.00" arrival="72.00">
        <routeDistribution>
            <route replacedOnEdge="" reason="device.rerouting" replacedAtTime="12.00" probability="0" edges="gneE0 gneE3"/>
            <route edges="gneE0 gneE1 gneE2 gneE3"/>
        </routeDistribution>
    </vehicle>

    <vehicle id="veh13" type="default" depart="37.00" departPos="1.00" arrivalPos="80.00" arrivalSpeed="0.00" arrival="75.00">
        <routeDistribution>
            <route replacedOnEdge="" reason="device.rerouting" replacedAtTime="13.00" probability="0" edges="gneE0 gneE3"/>
            <route edges="gneE0 gneE1 gneE2 gneE3"/>
        </routeDistribution>
    </vehicle>

    <vehicle id="veh14" type="default" depart="40.00" departPos="1.00" arrivalPos="80.00" arrivalSpeed="0.00" arrival="78.00">
        <routeDistribution>
            <route replacedOnEdge="" reason="device.rerouting" replacedAtTime="14.00" probability="0" edges="gneE0 gneE3"/>
            <route edges="gneE0 gneE1 gneE2 gneE3"/>
        </routeDistribution>
    </vehicle>

    <vehicle id="veh15" type="default" depart="43.00" departPos="1.00" arrivalPos="80.00" arrivalSpeed="0.00" arrival="82.00">
        <routeDistribution>
            <route replacedOnEdge="" reason="device.rerouting" replacedAtTime="15.00" probability="0" edges="gneE0 gneE3"/>
            <route edges="gneE0 gneE1 gneE2 gneE3"/>
        </routeDistribution>
    </vehicle>

    <vehicle id="veh16" type="default" depart="46.00" departPos="1.00" arrivalPos="80.00" arrivalSpeed="0.00" arrival="86.00">
        <routeDistribution>
            <route replacedOnEdge="" reason="device.rerouting" replacedAtTime="16.00" probability="0" edges="gneE0 gneE3"/>
            <route edges="gneE0 gneE1 gneE2 gneE3"/>
        </routeDistribution>
    </vehicle>

    <vehicle id="veh18" type="default" depart="52.00" departPos="1.00" arrivalPos="80.00" arrivalSpeed="0.00" arrival="90.00">
        <routeDistribution>
            <route replacedOnEdge="" reason="device.rerouting" replacedAtTime="18.00" probability="0" edges="gneE0 gneE3"/>
            <route edges="gneE0 gneE4 gneE5 gneE3"/>
        </routeDistribution>
    </vehicle>

    <vehicle id="veh19" type="default" depart="55.00" departPos="1.00" arrivalPos="80.00" arrivalSpeed="0.00" arrival="94.00">
        <routeDistribution>
            <route replacedOnEdge="" reason="device.rerouting" replacedAtTime="19.00" probability="0" edges="gneE0 gneE3"/>
            <route edges="gneE0 gneE4 gneE5 gneE3"/>
        </routeDistribution>
    </vehicle>

    <vehicle id="veh20" type="default" depart="58.00" departPos="1.00" arrivalPos="80.00" arrivalSpeed="0.00" arrival="99.00">
        <routeDistribution>
            <route replacedOnEdge="" reason="device.rerouting" replacedAtTime="20.00" probability="0" edges="gneE0 gneE3"/>
            <route edges="gneE0 gneE4 gneE5 gneE3"/>
        </routeDistribution>
    </vehicle>

    <vehicle id="veh21" type="default" depart="61.00" departPos="1.00" arrivalPos="80.00" arrivalSpeed="0.00" arrival="103.00">
        <routeDistribution>
            <route replacedOnEdge="" reason="device.rerouting" replacedAtTime="21.00" probability="0" edges="gneE0 gneE3"/>
            <route edges="gneE0 gneE4 gneE5 gneE3"/>
        </routeDistribution>
    </vehicle>

    <vehicle id="veh22" type="default" depart="64.00" departPos="1.00" arrivalPos="80.00" arrivalSpeed="0.00" arrival="107.00">
        <routeDistribution>
            <route replacedOnEdge="" reason="device.rerouting" replacedAtTime="22.00" probability="0" edges="gneE0 gneE3"/>
            <route edges="gneE0 gneE4 gneE5 gneE3"/>
        </routeDistribution>
    </vehicle>

    <vehicle id="veh17" type="default" depart="49.00" departPos="1.00" arrivalPos="80.00" arrivalSpeed="0.00" arrival="110.00">
        <routeDistribution>
            <route replacedOnEdge="" reason="device.rerouting" replacedAtTime="17.00" probability="0" edges="gneE0 gneE3"/>
            <route edges="gneE0 gneE1 gneE2 gneE3"/>
        </routeDistribution>
    </vehicle>

    <vehicle id="veh23" type="default" depart="67.00" departPos="1.00" arrivalPos="80.00" arrivalSpeed="0.00" arrival="113.00">
        <routeDistribution>
            <route replacedOnEdge="" reason="device.rerouting" replacedAtTime="23.00" probability="0" edges="gneE0 gneE3"/>
            <route edges="gneE0 gneE4 gneE5 gneE3"/>
        </routeDistribution>
    </vehicle>

    <vehicle id="veh24" type="default" depart="71.00" departPos="1.00" arrivalPos="80.00" arrivalSpeed="0.00" arrival="117.00">
        <routeDistribution>
            <route replacedOnEdge="" reason="device.rerouting" replacedAtTime="24.00" probability="0" edges="gneE0 gneE3"/>
            <route edges="gneE0 gneE4 gneE5 gneE3"/>
        </routeDistribution>
    </vehicle>

    <vehicle id="veh25" type="default" depart="74.00" departPos="1.00" arrivalPos="80.00" arrivalSpeed="0.00" arrival="122.00">
        <routeDistribution>
            <route replacedOnEdge="" reason="device.rerouting" replacedAtTime="25.00" probability="0" edges="gneE0 gneE3"/>
            <route edges="gneE0 gneE4 gneE5 gneE3"/>
        </routeDistribution>
    </vehicle>

    <vehicle id="veh26" type="default" depart="77.00" departPos="1.00" arrivalPos="80.00" arrivalSpeed="0.00" arrival="126.00">
        <routeDistribution>
            <route replacedOnEdge="" reason="device.rerouting" replacedAtTime="26.00" probability="0" edges="gneE0 gneE3"/>
            <route edges="gneE0 gneE4 gneE5 gneE3"/>
        </routeDistribution>
    </vehicle>

    <vehicle id="veh27" type="default" depart="80.00" departPos="1.00" arrivalPos="80.00" arrivalSpeed="0.00" arrival="129.00">
        <routeDistribution>
            <route replacedOnEdge="" reason="device.rerouting" replacedAtTime="27.00" probability="0" edges="gneE0 gneE3"/>
            <route edges="gneE0 gneE4 gneE5 gneE3"/>
        </routeDistribution>
    </vehicle>

    <vehicle id="veh28" type="default" depart="83.00" departPos="1.00" arrivalPos="80.00" arrivalSpeed="0.00" arrival="133.00">
        <routeDistribution>
            <route replacedOnEdge="" reason="device.rerouting" replacedAtTime="28.00" probability="0" edges="gneE0 gneE3"/>
            <route edges="gneE0 gneE4 gneE5 gneE3"/>
        </routeDistribution>
    </vehicle>

    <vehicle id="veh29" type="default" depart="86.00" departPos="1.00" arrivalPos="80.00" arrivalSpeed="0.00" arrival="136.00">
        <routeDistribution>
            <route replacedOnEdge="" reason="device.rerouting" replacedAtTime="29.00" probability="0" edges="gneE0 gneE3"/>
            <route edges="gneE0 gneE4 gneE5 gneE3"/>
        </routeDistribution>
    </vehicle>

    <vehicle id="veh30" type="default" depart="89.00" departPos="1.00" arrivalPos="80.00" arrivalSpeed="0.00" arrival="140.00">
        <routeDistribution>
            <route replacedOnEdge="" reason="device.rerouting" replacedAtTime="30.00" probability="0" edges="gneE0 gneE3"/>
            <route edges="gneE0 gneE4 gneE5 gneE3"/>
        </routeDistribution>
    </vehicle>

    <vehicle id="veh31" type="default" depart="91.00" departPos="1.00" arrivalPos="80.00" arrivalSpeed="0.00" arrival="145.00">
        <routeDistribution>
            <route replacedOnEdge="" reason="device.rerouting" replacedAtTime="31.00" probability="0" edges="gneE0 gneE3"/>
            <route replacedOnEdge="" reason="device.rerouting" replacedAtTime="91.00" probability="0" edges="gneE0 gneE4 gneE5 gneE3"/>
            <route edges="gneE0 gneE1 gneE2 gneE3"/>
        </routeDistribution>
    </vehicle>

    <vehicle id="veh32" type="default" depart="94.00" departPos="1.00" arrivalPos="80.00" arrivalSpeed="0.00" arrival="149.00">
        <routeDistribution>
            <route replacedOnEdge="" reason="device.rerouting" replacedAtTime="32.00" probability="0" edges="gneE0 gneE3"/>
            <route replacedOnEdge="" reason="device.rerouting" replacedAtTime="92.00" probability="0" edges="gneE0 gneE4 gneE5 gneE3"/>
            <route edges="gneE0 gneE1 gneE2 gneE3"/>
        </routeDistribution>
    </vehicle>

    <vehicle id="veh33" type="default" depart="98.00" departPos="1.00" arrivalPos="80.00" arrivalSpeed="0.00" arrival="153.00">
        <routeDistribution>
            <route replacedOnEdge="" reason="device.rerouting" replacedAtTime="33.00" probability="0" edges="gneE0 gneE3"/>
            <route replacedOnEdge="" reason="device.rerouting" replacedAtTime="93.00" probability="0" edges="gneE0 gneE4 gneE5 gneE3"/>
            <route edges="gneE0 gneE1 gneE2 gneE3"/>
        </routeDistribution>
    </vehicle>

    <vehicle id="veh34" type="default" depart="101.00" departPos="1.00" arrivalPos="80.00" arrivalSpeed="0.00" arrival="158.00">
        <routeDistribution>
            <route replacedOnEdge="" reason="device.rerouting" replacedAtTime="34.00" probability="0" edges="gneE0 gneE3"/>
            <route replacedOnEdge="" reason="device.rerouting" replacedAtTime="94.00" probability="0" edges="gneE0 gneE4 gneE5 gneE3"/>
            <route edges="gneE0 gneE1 gneE2 gneE3"/>
        </routeDistribution>
    </vehicle>

    <vehicle id="veh35" type="default" depart="104.00" departPos="1.00" arrivalPos="80.00" arrivalSpeed="0.00" arrival="163.00">
        <routeDistribution>
            <route replacedOnEdge="" reason="device.rerouting" replacedAtTime="35.00" probability="0" edges="gneE0 gneE3"/>
            <route replacedOnEdge="" reason="device.rerouting" replacedAtTime="95.00" probability="0" edges="gneE0 gneE4 gneE5 gneE3"/>
            <route edges="gneE0 gneE1 gneE2 gneE3"/>
        </routeDistribution>
    </vehicle>

    <vehicle id="veh36" type="default" depart="107.00" departPos="1.00" arrivalPos="80.00" arrivalSpeed="0.00" arrival="166.00">
        <routeDistribution>
            <route replacedOnEdge="" reason="device.rerouting" replacedAtTime="36.00" probability="0" edges="gneE0 gneE3"/>
            <route replacedOnEdge="" reason="device.rerouting" replacedAtTime="96.00" probability="0" edges="gneE0 gneE4 gneE5 gneE3"/>
            <route edges="gneE0 gneE1 gneE2 gneE3"/>
        </routeDistribution>
    </vehicle>

    <vehicle id="veh37" type="default" depart="110.00" departPos="1.00" arrivalPos="80.00" arrivalSpeed="0.00" arrival="169.00">
        <routeDistribution>
            <route replacedOnEdge="" reason="device.rerouting" replacedAtTime="37.00" probability="0" edges="gneE0 gneE3"/>
            <route replacedOnEdge="" reason="device.rerouting" replacedAtTime="97.00" probability="0" edges="gneE0 gneE4 gneE5 gneE3"/>
            <route edges="gneE0 gneE1 gneE2 gneE3"/>
        </routeDistribution>
    </vehicle>

    <vehicle id="veh38" type="default" depart="113.00" departPos="1.00" arrivalPos="80.00" arrivalSpeed="0.00" arrival="172.00">
        <routeDistribution>
            <route replacedOnEdge="" reason="device.rerouting" replacedAtTime="38.00" probability="0" edges="gneE0 gneE3"/>
            <route replacedOnEdge="" reason="device.rerouting" replacedAtTime="98.00" probability="0" edges="gneE0 gneE4 gneE5 gneE3"/>
            <route edges="gneE0 gneE1 gneE2 gneE3"/>
        </routeDistribution>
    </vehicle>

    <vehicle id="veh39" type="default" depart="116.00" departPos="1.00" arrivalPos="80.00" arrivalSpeed="0.00" arrival="175.00">
        <routeDistribution>
            <route replacedOnEdge="" reason="device.rerouting" replacedAtTime="39.00" probability="0" edges="gneE0 gneE3"/>
            <route replacedOnEdge="" reason="device.rerouting" replacedAtTime="99.00" probability="0" edges="gneE0 gneE4 gneE5 gneE3"/>
            <route edges="gneE0 gneE1 gneE2 gneE3"/>
        </routeDistribution>
    </vehicle>

    <vehicle id="veh40" type="default" depart="119.00" departPos="1.00" arrivalPos="80.00" arrivalSpeed="0.00" arrival="179.00">
        <routeDistribution>
            <route replacedOnEdge="" reason="device.rerouting" replacedAtTime="40.00" probability="0" edges="gneE0 gneE3"/>
            <route replacedOnEdge="" reason="device.rerouting" replacedAtTime="100.00" probability="0" edges="gneE0 gneE4 gneE5 gneE3"/>
            <route edges="gneE0 gneE1 gneE2 gneE3"/>
        </routeDistribution>
    </vehicle>

    <vehicle id="veh41" type="default" depart="122.00" departPos="1.00" arrivalPos="80.00" arrivalSpeed="0.00" arrival="183.00">
        <routeDistribution>
            <route replacedOnEdge="" reason="device.rerouting" replacedAtTime="41.00" probability="0" edges="gneE0 gneE3"/>
            <route replacedOnEdge="" reason="device.rerouting" replacedAtTime="101.00" probability="0" edges="gneE0 gneE4 gneE5 gneE3"/>
            <route edges="gneE0 gneE1 gneE2 gneE3"/>
        </routeDistribution>
    </vehicle>

    <vehicle id="veh42" type="default" depart="125.00" departPos="1.00" arrivalPos="80.00" arrivalSpeed="0.00" arrival="187.00">
        <routeDistribution>
            <route replacedOnEdge="" reason="device.rerouting" replacedAtTime="42.00" probability="0" edges="gneE0 gneE3"/>
            <route replacedOnEdge="" reason="device.rerouting" replacedAtTime="102.00" probability="0" edges="gneE0 gneE4 gneE5 gneE3"/>
            <route edges="gneE0 gneE1 gneE2 gneE3"/>
        </routeDistribution>
    </vehicle>

    <vehicle id="veh43" type="default" depart="128.00" departPos="1.00" arrivalPos="80.00" arrivalSpeed="0.00" arrival="191.00">
        <routeDistribution>
            <route replacedOnEdge="" reason="device.rerouting" replacedAtTime="43.00" probability="0" edges="gneE0 gneE3"/>
            <route replacedOnEdge="" reason="device.rerouting" replacedAtTime="103.00" probability="0" edges="gneE0 gneE4 gneE5 gneE3"/>
            <route edges="gneE0 gneE1 gneE2 gneE3"/>
        </routeDistribution>
    </vehicle>

    <vehicle id="veh44" type="default" depart="131.00" departPos="1.00" arrivalPos="80.00" arrivalSpeed="0.00" arrival="195.00">
        <routeDistribution>
            <route replacedOnEdge="" reason="device.rerouting" replacedAtTime="44.00" probability="0" edges="gneE0 gneE3"/>
            <route replacedOnEdge="" reason="device.rerouting" replacedAtTime="104.00" probability="0" edges="gneE0 gneE4 gneE5 gneE3"/>
            <route edges="gneE0 gneE1 gneE2 gneE3"/>
        </routeDistribution>
    </vehicle>

    <vehicle id="veh45" type="default" depart="134.00" departPos="1.00" arrivalPos="80.00" arrivalSpeed="0.00" arrival="200.00">
        <routeDistribution>
            <route replacedOnEdge="" reason="device.rerouting" replacedAtTime="45.00" probability="0" edges="gneE0 gneE3"/>
            <route replacedOnEdge="" reason="device.rerouting" replacedAtTime="105.00" probability="0" edges="gneE0 gneE4 gneE5 gneE3"/>
            <route edges="gneE0 gneE1 gneE2 gneE3"/>
        </routeDistribution>
    </vehicle>

    <vehicle id="veh51" type="default" depart="152.00" departPos="1.00" arrivalPos="80.00" arrivalSpeed="0.00" arrival="205.00">
        <routeDistribution>
            <route replacedOnEdge="" reason="device.rerouting" replacedAtTime="51.00" probability="0" edges="gneE0 gneE3"/>
            <route edges="gneE0 gneE4 gneE5 gneE3"/>
        </routeDistribution>
    </vehicle>

    <vehicle id="veh52" type="default" depart="155.00" departPos="1.00" arrivalPos="80.00" arrivalSpeed="0.00" arrival="208.00">
        <routeDistribution>
            <route replacedOnEdge="" reason="device.rerouting" replacedAtTime="52.00" probability="0" edges="gneE0 gneE3"/>
            <route edges="gneE0 gneE4 gneE5 gneE3"/>
        </routeDistribution>
    </vehicle>

    <vehicle id="veh53" type="default" depart="158.00" departPos="1.00" arrivalPos="80.00" arrivalSpeed="0.00" arrival="211.00">
        <routeDistribution>
            <route replacedOnEdge="" reason="device.rerouting" replacedAtTime="53.00" probability="0" edges="gneE0 gneE3"/>
            <route edges="gneE0 gneE4 gneE5 gneE3"/>
        </routeDistribution>
    </vehicle>

    <vehicle id="veh54" type="default" depart="160.00" departPos="1.00" arrivalPos="80.00" arrivalSpeed="0.00" arrival="214.00">
        <routeDistribution>
            <route replacedOnEdge="" reason="device.rerouting" replacedAtTime="54.00" probability="0" edges="gneE0 gneE3"/>
            <route edges="gneE0 gneE4 gneE5 gneE3"/>
        </routeDistribution>
    </vehicle>

    <vehicle id="veh55" type="default" depart="163.00" departPos="1.00" arrivalPos="80.00" arrivalSpeed="0.00" arrival="217.00">
        <routeDistribution>
            <route replacedOnEdge="" reason="device.rerouting" replacedAtTime="55.00" probability="0" edges="gneE0 gneE3"/>
            <route edges="gneE0 gneE4 gneE5 gneE3"/>
        </routeDistribution>
    </vehicle>

    <vehicle id="veh56" type="default" depart="166.00" departPos="1.00" arrivalPos="80.00" arrivalSpeed="0.00" arrival="220.00">
        <routeDistribution>
            <route replacedOnEdge="" reason="device.rerouting" replacedAtTime="56.00" probability="0" edges="gneE0 gneE3"/>
            <route edges="gneE0 gneE4 gneE5 gneE3"/>
        </routeDistribution>
    </vehicle>

    <vehicle id="veh57" type="default" depart="169.00" departPos="1.00" arrivalPos="80.00" arrivalSpeed="0.00" arrival="222.00">
        <routeDistribution>
            <route replacedOnEdge="" reason="device.rerouting" replacedAtTime="57.00" probability="0" edges="gneE0 gneE3"/>
            <route edges="gneE0 gneE4 gneE5 gneE3"/>
        </routeDistribution>
    </vehicle>

    <vehicle id="veh58" type="default" depart="172.00" departPos="1.00" arrivalPos="80.00" arrivalSpeed="0.00" arrival="226.00">
        <routeDistribution>
            <route replacedOnEdge="" reason="device.rerouting" replacedAtTime="58.00" probability="0" edges="gneE0 gneE3"/>
            <route edges="gneE0 gneE4 gneE5 gneE3"/>
        </routeDistribution>
    </vehicle>

    <vehicle id="veh59" type="default" depart="176.00" departPos="1.00" arrivalPos="80.00" arrivalSpeed="0.00" arrival="230.00">
        <routeDistribution>
            <route replacedOnEdge="" reason="device.rerouting" replacedAtTime="59.00" probability="0" edges="gneE0 gneE3"/>
            <route edges="gneE0 gneE4 gneE5 gneE3"/>
        </routeDistribution>
    </vehicle>

    <vehicle id="veh60" type="default" depart="179.00" departPos="1.00" arrivalPos="80.00" arrivalSpeed="0.00" arrival="235.00">
        <routeDistribution>
            <route replacedOnEdge="" reason="device.rerouting" replacedAtTime="60.00" probability="0" edges="gneE0 gneE3"/>
            <route edges="gneE0 gneE4 gneE5 gneE3"/>
        </routeDistribution>
    </vehicle>

    <vehicle id="veh61" type="default" depart="182.00" departPos="1.00" arrivalPos="80.00" arrivalSpeed="0.00" arrival="238.00">
        <routeDistribution>
            <route replacedOnEdge="" reason="device.rerouting" replacedAtTime="61.00" probability="0" edges="gneE0 gneE3"/>
            <route edges="gneE0 gneE4 gneE5 gneE3"/>
        </routeDistribution>
    </vehicle>

    <vehicle id="veh62" type="default" depart="184.00" departPos="1.00" arrivalPos="80.00" arrivalSpeed="0.00" arrival="241.00">
        <routeDistribution>
            <route replacedOnEdge="" reason="device.rerouting" replacedAtTime="62.00" probability="0" edges="gneE0 gneE3"/>
            <route edges="gneE0 gneE4 gneE5 gneE3"/>
        </routeDistribution>
    </vehicle>

    <vehicle id="veh63" type="default" depart="188.00" departPos="1.00" arrivalPos="80.00" arrivalSpeed="0.00" arrival="243.00">
        <routeDistribution>
            <route replacedOnEdge="" reason="device.rerouting" replacedAtTime="63.00" probability="0" edges="gneE0 gneE3"/>
            <route edges="gneE0 gneE4 gneE5 gneE3"/>
        </routeDistribution>
    </vehicle>

    <vehicle id="veh64" type="default" depart="191.00" departPos="1.00" arrivalPos="80.00" arrivalSpeed="0.00" arrival="247.00">
        <routeDistribution>
            <route replacedOnEdge="" reason="device.rerouting" replacedAtTime="64.00" probability="0" edges="gneE0 gneE3"/>
            <route edges="gneE0 gneE4 gneE5 gneE3"/>
        </routeDistribution>
    </vehicle>

    <vehicle id="veh65" type="default" depart="194.00" departPos="1.00" arrivalPos="80.00" arrivalSpeed="0.00" arrival="251.00">
        <routeDistribution>
            <route replacedOnEdge="" reason="device.rerouting" replacedAtTime="65.00" probability="0" edges="gneE0 gneE3"/>
            <route edges="gneE0 gneE4 gneE5 gneE3"/>
        </routeDistribution>
    </vehicle>

    <vehicle id="veh66" type="default" depart="197.00" departPos="1.00" arrivalPos="80.00" arrivalSpeed="0.00" arrival="254.00">
        <routeDistribution>
            <route replacedOnEdge="" reason="device.rerouting" replacedAtTime="66.00" probability="0" edges="gneE0 gneE3"/>
            <route edges="gneE0 gneE4 gneE5 gneE3"/>
        </routeDistribution>
    </vehicle>

    <vehicle id="veh67" type="default" depart="200.00" departPos="1.00" arrivalPos="80.00" arrivalSpeed="0.00" arrival="258.00">
        <routeDistribution>
            <route replacedOnEdge="" reason="device.rerouting" replacedAtTime="67.00" probability="0" edges="gneE0 gneE3"/>
            <route edges="gneE0 gneE4 gneE5 gneE3"/>
        </routeDistribution>
    </vehicle>

    <vehicle id="veh68" type="default" depart="203.00" departPos="1.00" arrivalPos="80.00" arrivalSpeed="0.00" arrival="261.00">
        <routeDistribution>
            <route replacedOnEdge="" reason="device.rerouting" replacedAtTime="68.00" probability="0" edges="gneE0 gneE3"/>
            <route edges="gneE0 gneE4 gneE5 gneE3"/>
        </routeDistribution>
    </vehicle>

    <vehicle id="veh69" type="default" depart="206.00" departPos="1.00" arrivalPos="80.00" arrivalSpeed="0.00" arrival="264.00">
        <routeDistribution>
            <route replacedOnEdge="" reason="device.rerouting" replacedAtTime="69.00" probability="0" edges="gneE0 gneE3"/>
            <route edges="gneE0 gneE4 gneE5 gneE3"/>
        </routeDistribution>
    </vehicle>

    <vehicle id="veh70" type="default" depart="209.00" departPos="1.00" arrivalPos="80.00" arrivalSpeed="0.00" arrival="268.00">
        <routeDistribution>
            <route replacedOnEdge="" reason="device.rerouting" replacedAtTime="70.00" probability="0" edges="gneE0 gneE3"/>
            <route edges="gneE0 gneE4 gneE5 gneE3"/>
        </routeDistribution>
    </vehicle>

    <vehicle id="veh71" type="default" depart="212.00" departPos="1.00" arrivalPos="80.00" arrivalSpeed="0.00" arrival="272.00">
        <routeDistribution>
            <route replacedOnEdge="" reason="device.rerouting" replacedAtTime="71.00" probability="0" edges="gneE0 gneE3"/>
            <route edges="gneE0 gneE4 gneE5 gneE3"/>
        </routeDistribution>
    </vehicle>

    <vehicle id="veh72" type="default" depart="215.00" departPos="1.00" arrivalPos="80.00" arrivalSpeed="0.00" arrival="276.00">
        <routeDistribution>
            <route replacedOnEdge="" reason="device.rerouting" replacedAtTime="72.00" probability="0" edges="gneE0 gneE3"/>
            <route edges="gneE0 gneE4 gneE5 gneE3"/>
        </routeDistribution>
    </vehicle>

    <vehicle id="veh73" type="default" depart="218.00" departPos="1.00" arrivalPos="80.00" arrivalSpeed="0.00" arrival="280.00">
        <routeDistribution>
            <route replacedOnEdge="" reason="device.rerouting" replacedAtTime="73.00" probability="0" edges="gneE0 gneE3"/>
            <route edges="gneE0 gneE4 gneE5 gneE3"/>
        </routeDistribution>
    </vehicle>

    <vehicle id="veh74" type="default" depart="221.00" departPos="1.00" arrivalPos="80.00" arrivalSpeed="0.00" arrival="283.00">
        <routeDistribution>
            <route replacedOnEdge="" reason="device.rerouting" replacedAtTime="74.00" probability="0" edges="gneE0 gneE3"/>
            <route edges="gneE0 gneE4 gneE5 gneE3"/>
        </routeDistribution>
    </vehicle>

    <vehicle id="veh75" type="default" depart="224.00" departPos="1.00" arrivalPos="80.00" arrivalSpeed="0.00" arrival="287.00">
        <routeDistribution>
            <route replacedOnEdge="" reason="device.rerouting" replacedAtTime="75.00" probability="0" edges="gneE0 gneE3"/>
            <route edges="gneE0 gneE4 gneE5 gneE3"/>
        </routeDistribution>
    </vehicle>

    <vehicle id="veh76" type="default" depart="227.00" departPos="1.00" arrivalPos="80.00" arrivalSpeed="0.00" arrival="291.00">
        <routeDistribution>
            <route replacedOnEdge="" reason="device.rerouting" replacedAtTime="76.00" probability="0" edges="gneE0 gneE3"/>
            <route edges="gneE0 gneE4 gneE5 gneE3"/>
        </routeDistribution>
    </vehicle>

    <vehicle id="veh77" type="default" depart="230.00" departPos="1.00" arrivalPos="80.00" arrivalSpeed="0.00" arrival="296.00">
        <routeDistribution>
            <route replacedOnEdge="" reason="device.rerouting" replacedAtTime="77.00" probability="0" edges="gneE0 gneE3"/>