<?xml version="1.0" encoding="UTF-8"?>

<!-- generated on 2022-11-17 22:46:50 by Eclipse SUMO sumo Version v1_15_0+0381-2777cf2
<configuration xmlns:xsi="http://www.w3.org/2001/XMLSchema-instance" xsi:noNamespaceSchemaLocation="http://sumo.dlr.de/xsd/sumoConfiguration.xsd">

    <input>
        <net-file value="input_net.net.xml"/>
        <load-state value="state.xml"/>
    </input>

    <output>
        <vehroute-output value="vehroutes2.xml"/>
    </output>

    <time>
        <begin value="500"/>
    </time>

    <report>
        <duration-log.disable value="true"/>
        <no-step-log value="true"/>
    </report>

</configuration>
-->

<routes xmlns:xsi="http://www.w3.org/2001/XMLSchema-instance" xsi:noNamespaceSchemaLocation="http://sumo.dlr.de/xsd/routes_file.xsd">
    <vehicle id="veh130" type="default" depart="395.00" departPos="1.00" arrivalPos="80.00" arrivalSpeed="0.00" arrival="500.00">
        <route edges="gneE0 gneE4 gneE5 gneE3"/>
    </vehicle>

    <vehicle id="veh131" type="default" depart="399.00" departPos="1.00" arrivalPos="80.00" arrivalSpeed="0.00" arrival="504.00">
        <route edges="gneE0 gneE4 gneE5 gneE3"/>
    </vehicle>

    <vehicle id="veh132" type="default" depart="403.00" departPos="1.00" arrivalPos="80.00" arrivalSpeed="0.00" arrival="507.00">
        <route edges="gneE0 gneE4 gneE5 gneE3"/>
    </vehicle>

    <vehicle id="veh133" type="default" depart="407.00" departPos="1.00" arrivalPos="80.00" arrivalSpeed="0.00" arrival="511.00">
        <route edges="gneE0 gneE4 gneE5 gneE3"/>
    </vehicle>

    <vehicle id="veh134" type="default" depart="412.00" departPos="1.00" arrivalPos="80.00" arrivalSpeed="0.00" arrival="515.00">
        <route edges="gneE0 gneE4 gneE5 gneE3"/>
    </vehicle>

    <vehicle id="veh135" type="default" depart="415.00" departPos="1.00" arrivalPos="80.00" arrivalSpeed="0.00" arrival="518.00">
        <route edges="gneE0 gneE4 gneE5 gneE3"/>
    </vehicle>

    <vehicle id="veh136" type="default" depart="421.00" departPos="1.00" arrivalPos="80.00" arrivalSpeed="0.00" arrival="522.00">
        <route edges="gneE0 gneE4 gneE5 gneE3"/>
    </vehicle>

    <vehicle id="veh137" type="default" depart="426.00" departPos="1.00" arrivalPos="80.00" arrivalSpeed="0.00" arrival="526.00">
        <route edges="gneE0 gneE4 gneE5 gneE3"/>
    </vehicle>

    <vehicle id="veh138" type="default" depart="429.00" departPos="1.00" arrivalPos="80.00" arrivalSpeed="0.00" arrival="530.00">
        <route edges="gneE0 gneE4 gneE5 gneE3"/>
    </vehicle>

    <vehicle id="veh139" type="default" depart="432.00" departPos="1.00" arrivalPos="80.00" arrivalSpeed="0.00" arrival="534.00">
        <route edges="gneE0 gneE4 gneE5 gneE3"/>
    </vehicle>

    <vehicle id="veh140" type="default" depart="438.00" departPos="1.00" arrivalPos="80.00" arrivalSpeed="0.00" arrival="538.00">
        <route edges="gneE0 gneE4 gneE5 gneE3"/>
    </vehicle>

    <vehicle id="veh141" type="default" depart="442.00" departPos="1.00" arrivalPos="80.00" arrivalSpeed="0.00" arrival="543.00">
        <route edges="gneE0 gneE4 gneE5 gneE3"/>
    </vehicle>

    <vehicle id="veh142" type="default" depart="445.00" departPos="1.00" arrivalPos="80.00" arrivalSpeed="0.00" arrival="547.00">
        <route edges="gneE0 gneE4 gneE5 gneE3"/>
    </vehicle>

    <vehicle id="veh143" type="default" depart="449.00" departPos="1.00" arrivalPos="80.00" arrivalSpeed="0.00" arrival="551.00">
        <route edges="gneE0 gneE4 gneE5 gneE3"/>
    </vehicle>

    <vehicle id="veh144" type="default" depart="452.00" departPos="1.00" arrivalPos="80.00" arrivalSpeed="0.00" arrival="554.00">
        <route edges="gneE0 gneE4 gneE5 gneE3"/>
    </vehicle>

    <vehicle id="veh145" type="default" depart="455.00" departPos="1.00" arrivalPos="80.00" arrivalSpeed="0.00" arrival="557.00">
        <route edges="gneE0 gneE4 gneE5 gneE3"/>
    </vehicle>

    <vehicle id="veh146" type="default" depart="459.00" departPos="1.00" arrivalPos="80.00" arrivalSpeed="0.00" arrival="560.00">
        <route edges="gneE0 gneE4 gneE5 gneE3"/>
    </vehicle>

    <vehicle id="veh147" type="default" depart="462.00" departPos="1.00" arrivalPos="80.00" arrivalSpeed="0.00" arrival="563.00">
        <route edges="gneE0 gneE4 gneE5 gneE3"/>
    </vehicle>

    <vehicle id="veh148" type="default" depart="465.00" departPos="1.00" arrivalPos="80.00" arrivalSpeed="0.00" arrival="566.00">
        <route edges="gneE0 gneE4 gneE5 gneE3"/>
    </vehicle>

    <vehicle id="veh68" type="default" depart="205.00" departPos="1.00" arrivalPos="80.00" arrivalSpeed="0.00" arrival="566.00">
        <route edges="gneE0 gneE1 gneE2 gneE3"/>
    </vehicle>

    <vehicle id="veh149" type="default" depart="469.00" departPos="1.00" arrivalPos="80.00" arrivalSpeed="0.00" arrival="569.00">
        <route edges="gneE0 gneE4 gneE5 gneE3"/>
    </vehicle>

    <vehicle id="veh150" type="default" depart="472.00" departPos="1.00" arrivalPos="80.00" arrivalSpeed="0.00" arrival="573.00">
        <route edges="gneE0 gneE4 gneE5 gneE3"/>
    </vehicle>

    <vehicle id="veh151" type="default" depart="476.00" departPos="1.00" arrivalPos="80.00" arrivalSpeed="0.00" arrival="577.00">
        <route edges="gneE0 gneE4 gneE5 gneE3"/>
    </vehicle>

    <vehicle id="veh152" type="default" depart="480.00" departPos="1.00" arrivalPos="80.00" arrivalSpeed="0.00" arrival="581.00">
        <route edges="gneE0 gneE4 gneE5 gneE3"/>
    </vehicle>

    <vehicle id="veh153" type="default" depart="483.00" departPos="1.00" arrivalPos="80.00" arrivalSpeed="0.00" arrival="584.00">
        <route edges="gneE0 gneE4 gneE5 gneE3"/>
    </vehicle>

    <vehicle id="veh154" type="default" depart="487.00" departPos="1.00" arrivalPos="80.00" arrivalSpeed="0.00" arrival="587.00">
        <route edges="gneE0 gneE4 gneE5 gneE3"/>
    </vehicle>

    <vehicle id="veh155" type="default" depart="491.00" departPos="1.00" arrivalPos="80.00" arrivalSpeed="0.00" arrival="590.00">
        <route edges="gneE0 gneE4 gneE5 gneE3"/>
    </vehicle>

    <vehicle id="veh156" type="default" depart="496.00" departPos="1.00" arrivalPos="80.00" arrivalSpeed="0.00" arrival="594.00">
        <route edges="gneE0 gneE4 gneE5 gneE3"/>
    </vehicle>

    <vehicle id="veh157" type="default" depart="501.00" departPos="1.00" arrivalPos="80.00" arrivalSpeed="0.00" arrival="599.00">
        <route edges="gneE0 gneE4 gneE5 gneE3"/>
    </vehicle>

    <vehicle id="veh158" type="default" depart="506.00" departPos="1.00" arrivalPos="80.00" arrivalSpeed="0.00" arrival="602.00">
        <route edges="gneE0 gneE4 gneE5 gneE3"/>
    </vehicle>

    <vehicle id="veh159" type="default" depart="511.00" departPos="1.00" arrivalPos="80.00" arrivalSpeed="0.00" arrival="606.00">
        <route edges="gneE0 gneE4 gneE5 gneE3"/>
    </vehicle>

    <vehicle id="veh160" type="default" depart="515.00" departPos="1.00" arrivalPos="80.00" arrivalSpeed="0.00" arrival="610.00">
        <route edges="gneE0 gneE4 gneE5 gneE3"/>
    </vehicle>

    <vehicle id="veh161" type="default" depart="518.00" departPos="1.00" arrivalPos="80.00" arrivalSpeed="0.00" arrival="614.00">
        <route edges="gneE0 gneE4 gneE5 gneE3"/>
    </vehicle>

    <vehicle id="veh162" type="default" depart="521.00" departPos="1.00" arrivalPos="80.00" arrivalSpeed="0.00" arrival="616.00">
        <route edges="gneE0 gneE4 gneE5 gneE3"/>
    </vehicle>

    <vehicle id="veh163" type="default" depart="524.00" departPos="1.00" arrivalPos="80.00" arrivalSpeed="0.00" arrival="620.00">
        <route edges="gneE0 gneE4 gneE5 gneE3"/>
    </vehicle>

    <vehicle id="veh164" type="default" depart="527.00" departPos="1.00" arrivalPos="80.00" arrivalSpeed="0.00" arrival="623.00">
        <route edges="gneE0 gneE4 gneE5 gneE3"/>
    </vehicle>

    <vehicle id="veh165" type="default" depart="530.00" departPos="1.00" arrivalPos="80.00" arrivalSpeed="0.00" arrival="627.00">
        <route edges="gneE0 gneE4 gneE5 gneE3"/>
    </vehicle>

    <vehicle id="veh166" type="default" depart="534.00" departPos="1.00" arrivalPos="80.00" arrivalSpeed="0.00" arrival="630.00">
        <route edges="gneE0 gneE4 gneE5 gneE3"/>
    </vehicle>

    <vehicle id="veh167" type="default" depart="540.00" departPos="1.00" arrivalPos="80.00" arrivalSpeed="0.00" arrival="634.00">
        <route edges="gneE0 gneE4 gneE5 gneE3"/>
    </vehicle>

    <vehicle id="veh168" type="default" depart="544.00" departPos="1.00" arrivalPos="80.00" arrivalSpeed="0.00" arrival="640.00">
        <route edges="gneE0 gneE4 gneE5 gneE3"/>
    </vehicle>

    <vehicle id="veh169" type="default" depart="548.00" departPos="1.00" arrivalPos="80.00" arrivalSpeed="0.00" arrival="644.00">
        <route edges="gneE0 gneE4 gneE5 gneE3"/>
    </vehicle>

    <vehicle id="veh170" type="default" depart="552.00" departPos="1.00" arrivalPos="80.00" arrivalSpeed="0.00" arrival="648.00">
        <route edges="gneE0 gneE4 gneE5 gneE3"/>
    </vehicle>

    <vehicle id="veh171" type="default" depart="555.00" departPos="1.00" arrivalPos="80.00" arrivalSpeed="0.00" arrival="653.00">
        <route edges="gneE0 gneE4 gneE5 gneE3"/>
    </vehicle>

    <vehicle id="veh172" type="default" depart="558.00" departPos="1.00" arrivalPos="80.00" arrivalSpeed="0.00" arrival="656.00">
        <route edges="gneE0 gneE4 gneE5 gneE3"/>
    </vehicle>

    <vehicle id="veh173" type="default" depart="562.00" departPos="1.00" arrivalPos="80.00" arrivalSpeed="0.00" arrival="659.00">
        <route edges="gneE0 gneE4 gneE5 gneE3"/>
    </vehicle>

    <vehicle id="veh174" type="default" depart="567.00" departPos="1.00" arrivalPos="80.00" arrivalSpeed="0.00" arrival="662.00">
        <route edges="gneE0 gneE4 gneE5 gneE3"/>
    </vehicle>

    <vehicle id="veh175" type="default" depart="570.00" departPos="1.00" arrivalPos="80.00" arrivalSpeed="0.00" arrival="666.00">
        <route edges="gneE0 gneE4 gneE5 gneE3"/>
    </vehicle>

    <vehicle id="veh176" type="default" depart="573.00" departPos="1.00" arrivalPos="80.00" arrivalSpeed="0.00" arrival="672.00">
        <route edges="gneE0 gneE4 gneE5 gneE3"/>
    </vehicle>

    <vehicle id="veh177" type="default" depart="579.00" departPos="1.00" arrivalPos="80.00" arrivalSpeed="0.00" arrival="677.00">
        <route edges="gneE0 gneE4 gneE5 gneE3"/>
    </vehicle>

    <vehicle id="veh178" type="default" depart="582.00" departPos="1.00" arrivalPos="80.00" arrivalSpeed="0.00" arrival="681.00">
        <route edges="gneE0 gneE4 gneE5 gneE3"/>
    </vehicle>

    <vehicle id="veh179" type="default" depart="588.00" departPos="1.00" arrivalPos="80.00" arrivalSpeed="0.00" arrival="685.00">
        <route edges="gneE0 gneE4 gneE5 gneE3"/>
    </vehicle>

    <vehicle id="veh180" type="default" depart="592.00" departPos="1.00" arrivalPos="80.00" arrivalSpeed="0.00" arrival="688.00">
        <route edges="gneE0 gneE4 gneE5 gneE3"/>
    </vehicle>

    <vehicle id="veh181" type="default" depart="595.00" departPos="1.00" arrivalPos="80.00" arrivalSpeed="0.00" arrival="691.00">
        <route edges="gneE0 gneE4 gneE5 gneE3"/>
    </vehicle>

    <vehicle id="veh182" type="default" depart="598.00" departPos="1.00" arrivalPos="80.00" arrivalSpeed="0.00" arrival="695.00">
        <route edges="gneE0 gneE4 gneE5 gneE3"/>
    </vehicle>

    <vehicle id="veh183" type="default" depart="602.00" departPos="1.00" arrivalPos="80.00" arrivalSpeed="0.00" arrival="700.00">
        <route edges="gneE0 gneE4 gneE5 gneE3"/>
    </vehicle>

    <vehicle id="veh184" type="default" depart="605.00" departPos="1.00" arrivalPos="80.00" arrivalSpeed="0.00" arrival="704.00">
        <route edges="gneE0 gneE4 gneE5 gneE3"/>
    </vehicle>

    <vehicle id="veh185" type="default" depart="608.00" departPos="1.00" arrivalPos="80.00" arrivalSpeed="0.00" arrival="708.00">
        <route edges="gneE0 gneE4 gneE5 gneE3"/>
    </vehicle>

    <vehicle id="veh186" type="default" depart="611.00" departPos="1.00" arrivalPos="80.00" arrivalSpeed="0.00" arrival="712.00">
        <route edges="gneE0 gneE4 gneE5 gneE3"/>
    </vehicle>

    <vehicle id="veh187" type="default" depart="614.00" departPos="1.00" arrivalPos="80.00" arrivalSpeed="0.00" arrival="716.00">
        <route edges="gneE0 gneE4 gneE5 gneE3"/>
    </vehicle>

    <vehicle id="veh188" type="default" depart="617.00" departPos="1.00" arrivalPos="80.00" arrivalSpeed="0.00" arrival="720.00">
        <route edges="gneE0 gneE4 gneE5 gneE3"/>
    </vehicle>

    <vehicle id="veh189" type="default" depart="621.00" departPos="1.00" arrivalPos="80.00" arrivalSpeed="0.00" arrival="724.00">
        <route edges="gneE0 gneE4 gneE5 gneE3"/>
    </vehicle>

    <vehicle id="veh190" type="default" depart="624.00" departPos="1.00" arrivalPos="80.00" arrivalSpeed="0.00" arrival="728.00">
        <route edges="gneE0 gneE4 gneE5 gneE3"/>
    </vehicle>

    <vehicle id="veh191" type="default" depart="628.00" departPos="1.00" arrivalPos="80.00" arrivalSpeed="0.00" arrival="732.00">
        <route edges="gneE0 gneE4 gneE5 gneE3"/>
    </vehicle>

    <vehicle id="veh192" type="default" depart="631.00" departPos="1.00" arrivalPos="80.00" arrivalSpeed="0.00" arrival="736.00">
        <route edges="gneE0 gneE4 gneE5 gneE3"/>
    </vehicle>

    <vehicle id="veh193" type="default" depart="634.00" departPos="1.00" arrivalPos="80.00" arrivalSpeed="0.00" arrival="738.00">
        <route edges="gneE0 gneE4 gneE5 gneE3"/>
    </vehicle>

    <vehicle id="veh194" type="default" depart="639.00" departPos="1.00" arrivalPos="80.00" arrivalSpeed="0.00" arrival="741.00">
        <route edges="gneE0 gneE4 gneE5 gneE3"/>
    </vehicle>

    <vehicle id="veh195" type="default" depart="643.00" departPos="1.00" arrivalPos="80.00" arrivalSpeed="0.00" arrival="746.00">
        <route edges="gneE0 gneE4 gneE5 gneE3"/>
    </vehicle>

    <vehicle id="veh196" type="default" depart="647.00" departPos="1.00" arrivalPos="80.00" arrivalSpeed="0.00" arrival="749.00">
        <route edges="gneE0 gneE4 gneE5 gneE3"/>
    </vehicle>

    <vehicle id="veh197" type="default" depart="651.00" departPos="1.00" arrivalPos="80.00" arrivalSpeed="0.00" arrival="751.00">
        <route edges="gneE0 gneE4 gneE5 gneE3"/>
    </vehicle>

    <vehicle id="veh198" type="default" depart="655.00" departPos="1.00" arrivalPos="80.00" arrivalSpeed="0.00" arrival="754.00">
        <route edges="gneE0 gneE4 gneE5 gneE3"/>
    </vehicle>

    <vehicle id="veh199" type="default" depart="658.00" departPos="1.00" arrivalPos="80.00" arrivalSpeed="0.00" arrival="757.00">
        <route edges="gneE0 gneE4 gneE5 gneE3"/>
    </vehicle>

    <vehicle id="veh200" type="default" depart="661.00" departPos="1.00" arrivalPos="80.00" arrivalSpeed="0.00" arrival="760.00">
        <route edges="gneE0 gneE4 gneE5 gneE3"/>
    </vehicle>

    <vehicle id="veh201" type="default" depart="664.00" departPos="1.00" arrivalPos="80.00" arrivalSpeed="0.00" arrival="764.00">
        <route edges="gneE0 gneE4 gneE5 gneE3"/>
    </vehicle>

    <vehicle id="veh202" type="default" depart="667.00" departPos="1.00" arrivalPos="80.00" arrivalSpeed="0.00" arrival="767.00">
        <route edges="gneE0 gneE4 gneE5 gneE3"/>
    </vehicle>

    <vehicle id="veh203" type="default" depart="671.00" departPos="1.00" arrivalPos="80.00" arrivalSpeed="0.00" arrival="770.00">
        <route edges="gneE0 gneE4 gneE5 gneE3"/>
    </vehicle>

    <vehicle id="veh204" type="default" depart="674.00" departPos="1.00" arrivalPos="80.00" arrivalSpeed="0.00" arrival="774.00">
        <route edges="gneE0 gneE4 gneE5 gneE3"/>
    </vehicle>

    <vehicle id="veh205" type="default" depart="678.00" departPos="1.00" arrivalPos="80.00" arrivalSpeed="0.00" arrival="778.00">
        <route edges="gneE0 gneE4 gneE5 gneE3"/>
    </vehicle>

    <vehicle id="veh206" type="default" depart="684.00" departPos="1.00" arrivalPos="80.00" arrivalSpeed="0.00" arrival="781.00">
        <route edges="gneE0 gneE4 gneE5 gneE3"/>
    </vehicle>

    <vehicle id="veh207" type="default" depart="688.00" departPos="1.00" arrivalPos="80.00" arrivalSpeed="0.00" arrival="785.00">
        <route edges="gneE0 gneE4 gneE5 gneE3"/>
    </vehicle>

    <vehicle id="veh208" type="default" depart="693.00" departPos="1.00" arrivalPos="80.00" arrivalSpeed="0.00" arrival="789.00">
        <route edges="gneE0 gneE4 gneE5 gneE3"/>
    </vehicle>

    <vehicle id="veh209" type="default" depart="697.00" departPos="1.00" arrivalPos="80.00" arrivalSpeed="0.00" arrival="793.00">
        <route edges="gneE0 gneE4 gneE5 gneE3"/>
    </vehicle>

    <vehicle id="veh210" type="default" depart="700.00" departPos="1.00" arrivalPos="80.00" arrivalSpeed="0.00" arrival="798.00">
        <route edges="gneE0 gneE4 gneE5 gneE3"/>
    </vehicle>

    <vehicle id="veh211" type="default" depart="703.00" departPos="1.00" arrivalPos="80.00" arrivalSpeed="0.00" arrival="801.00">
        <route edges="gneE0 gneE4 gneE5 gneE3"/>
    </vehicle>

    <vehicle id="veh212" type="default" depart="706.00" departPos="1.00" arrivalPos="80.00" arrivalSpeed="0.00" arrival="805.00">
        <route edges="gneE0 gneE4 gneE5 gneE3"/>
    </vehicle>

    <vehicle id="veh213" type="default" depart="712.00" departPos="1.00" arrivalPos="80.00" arrivalSpeed="0.00" arrival="808.00">
        <route edges="gneE0 gneE4 gneE5 gneE3"/>
    </vehicle>

    <vehicle id="veh214" type="default" depart="717.00" departPos="1.00" arrivalPos="80.00" arrivalSpeed="0.00" arrival="812.00">
        <route edges="gneE0 gneE4 gneE5 gneE3"/>
    </vehicle>

    <vehicle id="veh215" type="default" depart="721.00" departPos="1.00" arrivalPos="80.00" arrivalSpeed="0.00" arrival="816.00">
        <route edges="gneE0 gneE4 gneE5 gneE3"/>
    </vehicle>

    <vehicle id="veh216" type="default" depart="725.00" departPos="1.00" arrivalPos="80.00" arrivalSpeed="0.00" arrival="819.00">
        <route edges="gneE0 gneE4 gneE5 gneE3"/>
    </vehicle>

    <vehicle id="veh217" type="default" depart="729.00" departPos="1.00" arrivalPos="80.00" arrivalSpeed="0.00" arrival="822.00">
        <route edges="gneE0 gneE4 gneE5 gneE3"/>
    </vehicle>

    <vehicle id="veh218" type="default" depart="732.00" departPos="1.00" arrivalPos="80.00" arrivalSpeed="0.00" arrival="825.00">
        <route edges="gneE0 gneE4 gneE5 gneE3"/>
    </vehicle>

    <vehicle id="veh219" type="default" depart="735.00" departPos="1.00" arrivalPos="80.00" arrivalSpeed="0.00" arrival="829.00">
        <route edges="gneE0 gneE4 gneE5 gneE3"/>
    </vehicle>

    <vehicle id="veh220" type="default" depart="741.00" departPos="1.00" arrivalPos="80.00" arrivalSpeed="0.00" arrival="832.00">
        <route edges="gneE0 gneE4 gneE5 gneE3"/>
    </vehicle>

    <vehicle id="veh221" type="default" depart="744.00" departPos="1.00" arrivalPos="80.00" arrivalSpeed="0.00" arrival="835.00">
        <route edges="gneE0 gneE4 gneE5 gneE3"/>
    </vehicle>

    <vehicle id="veh222" type="default" depart="749.00" departPos="1.00" arrivalPos="80.00" arrivalSpeed="0.00" arrival="837.00">
        <route edges="gneE0 gneE4 gneE5 gneE3"/>
    </vehicle>

    <vehicle id="veh223" type="default" depart="752.00" departPos="1.00" arrivalPos="80.00" arrivalSpeed="0.00" arrival="840.00">
        <route edges="gneE0 gneE4 gneE5 gneE3"/>
    </vehicle>

    <vehicle id="veh224" type="default" depart="757.00" departPos="1.00" arrivalPos="80.00" arrivalSpeed="0.00" arrival="842.00">
        <route edges="gneE0 gneE4 gneE5 gneE3"/>
    </vehicle>

    <vehicle id="veh225" type="default" depart="760.00" departPos="1.00" arrivalPos="80.00" arrivalSpeed="0.00" arrival="844.00">
        <route edges="gneE0 gneE4 gneE5 gneE3"/>
    </vehicle>

    <vehicle id="veh226" type="default" depart="764.00" departPos="1.00" arrivalPos="80.00" arrivalSpeed="0.00" arrival="848.00">
        <route edges="gneE0 gneE4 gneE5 gneE3"/>
    </vehicle>

    <vehicle id="veh227" type="default" depart="768.00" departPos="1.00" arrivalPos="80.00" arrivalSpeed="0.00" arrival="852.00">
        <route edges="gneE0 gneE4 gneE5 gneE3"/>
    </vehicle>

    <vehicle id="veh228" type="default" depart="771.00" departPos="1.00" arrivalPos="80.00" arrivalSpeed="0.00" arrival="856.00">
        <route edges="gneE0 gneE4 gneE5 gneE3"/>
    </vehicle>

    <vehicle id="veh229" type="default" depart="776.00" departPos="1.00" arrivalPos="80.00" arrivalSpeed="0.00" arrival="859.00">
        <route edges="gneE0 gneE4 gneE5 gneE3"/>
    </vehicle>

    <vehicle id="veh230" type="default" depart="780.00" departPos="1.00" arrivalPos="80.00" arrivalSpeed="0.00" arrival="862.00">
        <route edges="gneE0 gneE4 gneE5 gneE3"/>
    </vehicle>

    <vehicle id="veh231" type="default" depart="783.00" departPos="1.00" arrivalPos="80.00" arrivalSpeed="0.00" arrival="865.00">
        <route edges="gneE0 gneE4 gneE5 gneE3"/>
    </vehicle>

    <vehicle id="veh232" type="default" depart="786.00" departPos="1.00" arrivalPos="80.00" arrivalSpeed="0.00" arrival="868.00">
        <route edges="gneE0 gneE4 gneE5 gneE3"/>
    </vehicle>

    <vehicle id="veh69" type="default" depart="208.00" departPos="1.00" arrivalPos="80.00" arrivalSpeed="0.00" arrival="870.00">
        <route edges="gneE0 gneE1 gneE2 gneE3"/>
    </vehicle>

    <vehicle id="veh233" type="default" depart="789.00" departPos="1.00" arrivalPos="80.00" arrivalSpeed="0.00" arrival="872.00">
        <route edges="gneE0 gneE4 gneE5 gneE3"/>
    </vehicle>

    <vehicle id="veh234" type="default" depart="793.00" departPos="1.00" arrivalPos="80.00" arrivalSpeed="0.00" arrival="875.00">
        <route edges="gneE0 gneE4 gneE5 gneE3"/>
    </vehicle>

    <vehicle id="veh235" type="default" depart="796.00" departPos="1.00" arrivalPos="80.00" arrivalSpeed="0.00" arrival="878.00">
        <route edges="gneE0 gneE4 gneE5 gneE3"/>
    </vehicle>

    <vehicle id="veh236" type="default" depart="799.00" departPos="1.00" arrivalPos="80.00" arrivalSpeed="0.00" arrival="883.00">
        <route edges="gneE0 gneE4 gneE5 gneE3"/>
    </vehicle>

    <vehicle id="veh237" type="default" depart="802.00" departPos="1.00" arrivalPos="80.00" arrivalSpeed="0.00" arrival="888.00">
        <route edges="gneE0 gneE4 gneE5 gneE3"/>
    </vehicle>

    <vehicle id="veh238" type="default" depart="805.00" departPos="1.00" arrivalPos="80.00" arrivalSpeed="0.00" arrival="893.00">
        <route edges="gneE0 gneE4 gneE5 gneE3"/>
    </vehicle>

    <vehicle id="veh239" type="default" depart="808.00" departPos="1.00" arrivalPos="80.00" arrivalSpeed="0.00" arrival="898.00">
        <route edges="gneE0 gneE4 gneE5 gneE3"/>
    </vehicle>

    <vehicle id="veh240" type="default" depart="811.00" departPos="1.00" arrivalPos="80.00" arrivalSpeed="0.00" arrival="902.00">
        <route edges="gneE0 gneE4 gneE5 gneE3"/>
    </vehicle>

    <vehicle id="veh241" type="default" depart="815.00" departPos="1.00" arrivalPos="80.00" arrivalSpeed="0.00" arrival="905.00">
        <route edges="gneE0 gneE4 gneE5 gneE3"/>
    </vehicle>

    <vehicle id="veh242" type="default" depart="819.00" departPos="1.00" arrivalPos="80.00" arrivalSpeed="0.00" arrival="909.00">
        <route edges="gneE0 gneE4 gneE5 gneE3"/>
    </vehicle>

    <vehicle id="veh243" type="default" depart="822.00" departPos="1.00" arrivalPos="80.00" arrivalSpeed="0.00" arrival="912.00">
        <route edges="gneE0 gneE4 gneE5 gneE3"/>
    </vehicle>

    <vehicle id="veh244" type="default" depart="825.00" departPos="1.00" arrivalPos="80.00" arrivalSpeed="0.00" arrival="917.00">
        <route edges="gneE0 gneE4 gneE5 gneE3"/>
    </vehicle>

    <vehicle id="veh245" type="default" depart="828.00" departPos="1.00" arrivalPos="80.00" arrivalSpeed="0.00" arrival="922.00">
        <route edges="gneE0 gneE4 gneE5 gneE3"/>
    </vehicle>

    <vehicle id="veh246" type="default" depart="833.00" departPos="1.00" arrivalPos="80.00" arrivalSpeed="0.00" arrival="926.00">
        <route edges="gneE0 gneE4 gneE5 gneE3"/>
    </vehicle>

    <vehicle id="veh247" type="default" depart="837.00" departPos="1.00" arrivalPos="80.00" arrivalSpeed="0.00" arrival="929.00">
        <route edges="gneE0 gneE4 gneE5 gneE3"/>
    </vehicle>

    <vehicle id="veh248" type="default" depart="842.00" departPos="1.00" arrivalPos="80.00" arrivalSpeed="0.00" arrival="932.00">
        <route edges="gneE0 gneE4 gneE5 gneE3"/>
    </vehicle>

    <vehicle id="veh249" type="default" depart="846.00" departPos="1.00" arrivalPos="80.00" arrivalSpeed="0.00" arrival="935.00">
        <route edges="gneE0 gneE4 gneE5 gneE3"/>
    </vehicle>

    <vehicle id="veh250" type="default" depart="849.00" departPos="1.00" arrivalPos="80.00" arrivalSpeed="0.00" arrival="940.00">
        <route edges="gneE0 gneE4 gneE5 gneE3"/>
    </vehicle>

    <vehicle id="veh251" type="default" depart="853.00" departPos="1.00" arrivalPos="80.00" arrivalSpeed="0.00" arrival="945.00">
        <route edges="gneE0 gneE4 gneE5 gneE3"/>
    </vehicle>

    <vehicle id="veh252" type="default" depart="857.00" departPos="1.00" arrivalPos="80.00" arrivalSpeed="0.00" arrival="947.00">
        <route edges="gneE0 gneE4 gneE5 gneE3"/>
    </vehicle>

    <vehicle id="veh253" type="default" depart="860.00" departPos="1.00" arrivalPos="80.00" arrivalSpeed="0.00" arrival="952.00">
        <route edges="gneE0 gneE4 gneE5 gneE3"/>
    </vehicle>

    <vehicle id="veh254" type="default" depart="863.00" departPos="1.00" arrivalPos="80.00" arrivalSpeed="0.00" arrival="955.00">
        <route edges="gneE0 gneE4 gneE5 gneE3"/>
    </vehicle>

    <vehicle id="veh255" type="default" depart="866.00" departPos="1.00" arrivalPos="80.00" arrivalSpeed="0.00" arrival="960.00">
        <route edges="gneE0 gneE4 gneE5 gneE3"/>
    </vehicle>

    <vehicle id="veh256" type="default" depart="869.00" departPos="1.00" arrivalPos="80.00" arrivalSpeed="0.00" arrival="965.00">
        <route edges="gneE0 gneE4 gneE5 gneE3"/>
    </vehicle>

    <vehicle id="veh257" type="default" depart="872.00" departPos="1.00" arrivalPos="80.00" arrivalSpeed="0.00" arrival="969.00">
        <route edges="gneE0 gneE4 gneE5 gneE3"/>
    </vehicle>

    <vehicle id="veh258" type="default" depart="876.00" departPos="1.00" arrivalPos="80.00" arrivalSpeed="0.00" arrival="973.00">
        <route edges="gneE0 gneE4 gneE5 gneE3"/>
    </vehicle>

    <vehicle id="veh259" type="default" depart="879.00" departPos="1.00" arrivalPos="80.00" arrivalSpeed="0.00" arrival="977.00">
        <route edges="gneE0 gneE4 gneE5 gneE3"/>
    </vehicle>

    <vehicle id="veh260" type="default" depart="882.00" departPos="1.00" arrivalPos="80.00" arrivalSpeed="0.00" arrival="981.00">
        <route edges="gneE0 gneE4 gneE5 gneE3"/>
    </vehicle>

    <vehicle id="veh261" type="default" depart="885.00" departPos="1.00" arrivalPos="80.00" arrivalSpeed="0.00" arrival="984.00">
        <route edges="gneE0 gneE4 gneE5 gneE3"/>
    </vehicle>

    <vehicle id="veh262" type="default" depart="888.00" departPos="1.00" arrivalPos="80.00" arrivalSpeed="0.00" arrival="988.00">
        <route edges="gneE0 gneE4 gneE5 gneE3"/>
    </vehicle>

    <vehicle id="veh263" type="default" depart="891.00" departPos="1.00" arrivalPos="80.00" arrivalSpeed="0.00" arrival="992.00">
        <route edges="gneE0 gneE4 gneE5 gneE3"/>
    </vehicle>

    <vehicle id="veh264" type="default" depart="894.00" departPos="1.00" arrivalPos="80.00" arrivalSpeed="0.00" arrival="996.00">
        <route edges="gneE0 gneE4 gneE5 gneE3"/>
    </vehicle>

    <vehicle id="veh265" type="default" depart="897.00" departPos="1.00" arrivalPos="80.00" arrivalSpeed="0.00" arrival="1002.00">
        <route edges="gneE0 gneE4 gneE5 gneE3"/>
    </vehicle>

    <vehicle id="veh266" type="default" depart="900.00" departPos="1.00" arrivalPos="80.00" arrivalSpeed="0.00" arrival="1007.00">
        <route edges="gneE0 gneE4 gneE5 gneE3"/>
    </vehicle>

    <vehicle id="veh267" type="default" depart="903.00" departPos="1.00" arrivalPos="80.00" arrivalSpeed="0.00" arrival="1010.00">
        <route edges="gneE0 gneE4 gneE5 gneE3"/>
    </vehicle>

    <vehicle id="veh268" type="default" depart="906.00" departPos="1.00" arrivalPos="80.00" arrivalSpeed="0.00" arrival="1012.00">
        <route edges="gneE0 gneE4 gneE5 gneE3"/>
    </vehicle>

    <vehicle id="veh269" type="default" depart="909.00" departPos="1.00" arrivalPos="80.00" arrivalSpeed="0.00" arrival="1016.00">
        <route edges="gneE0 gneE4 gneE5 gneE3"/>
    </vehicle>

    <vehicle id="veh270" type="default" depart="912.00" departPos="1.00" arrivalPos="80.00" arrivalSpeed="0.00" arrival="1019.00">
        <route edges="gneE0 gneE4 gneE5 gneE3"/>
    </vehicle>

    <vehicle id="veh271" type="default" depart="915.00" departPos="1.00" arrivalPos="80.00" arrivalSpeed="0.00" arrival="1023.00">
        <route edges="gneE0 gneE4 gneE5 gneE3"/>
    </vehicle>

    <vehicle id="veh272" type="default" depart="919.00" departPos="1.00" arrivalPos="80.00" arrivalSpeed="0.00" arrival="1028.00">
        <route edges="gneE0 gneE4 gneE5 gneE3"/>
    </vehicle>

    <vehicle id="veh273" type="default" depart="923.00" departPos="1.00" arrivalPos="80.00" arrivalSpeed="0.00" arrival="1032.00">
        <route edges="gneE0 gneE4 gneE5 gneE3"/>
    </vehicle>

    <vehicle id="veh274" type="default" depart="928.00" departPos="1.00" arrivalPos="80.00" arrivalSpeed="0.00" arrival="1036.00">
        <route edges="gneE0 gneE4 gneE5 gneE3"/>
    </vehicle>

    <vehicle id="veh275" type="default" depart="933.00" departPos="1.00" arrivalPos="80.00" arrivalSpeed="0.00" arrival="1039.00">
        <route edges="gneE0 gneE4 gneE5 gneE3"/>
    </vehicle>

    <vehicle id="veh276" type="default" depart="937.00" departPos="1.00" arrivalPos="80.00" arrivalSpeed="0.00" arrival="1042.00">
        <route edges="gneE0 gneE4 gneE5 gneE3"/>
    </vehicle>

    <vehicle id="veh277" type="default" depart="942.00" departPos="1.00" arrivalPos="80.00" arrivalSpeed="0.00" arrival="1046.00">