<?xml version="1.0" encoding="UTF-8"?>

<!-- generated on Wed May 30 09:50:07 2018 by Eclipse SUMO Version b2daee9
This data file and the accompanying materials
are made available under the terms of the Eclipse Public License v2.0
which accompanies this distribution, and is available at
http://www.eclipse.org/legal/epl-v20.html
SPDX-License-Identifier: EPL-2.0
<configuration xmlns:xsi="http://www.w3.org/2001/XMLSchema-instance" xsi:noNamespaceSchemaLocation="https://sumo.dlr.de/xsd/sumoConfiguration.xsd">

    <input>
        <net-file value="net.net.xml"/>
        <route-files value="input_routes.rou.xml"/>
        <additional-files value="input_additional.add.xml"/>
    </input>

    <output>
        <write-license value="true"/>
        <vehroute-output value="vehroutes.xml"/>
    </output>

    <processing>
        <lateral-resolution value="0.8"/>
    </processing>

    <report>
        <xml-validation value="never"/>
        <duration-log.disable value="true"/>
        <no-step-log value="true"/>
    </report>

</configuration>
-->

<routes xmlns:xsi="http://www.w3.org/2001/XMLSchema-instance" xsi:noNamespaceSchemaLocation="https://sumo.dlr.de/xsd/routes_file.xsd">
    <vehicle id="flow3.0" depart="40.00" arrival="310.00">
        <route edges="a b c"/>
        <stop parkingArea="ParkAreaB" duration="200.00"/>
    </vehicle>

    <vehicle id="flow3.1" depart="45.00" arrival="315.00">
        <route edges="a b c"/>
        <stop parkingArea="ParkAreaB" duration="200.00"/>
    </vehicle>

    <vehicle id="flow3.2" depart="50.00" arrival="320.00">
        <route edges="a b c"/>
        <stop parkingArea="ParkAreaB" duration="200.00"/>
    </vehicle>

    <vehicle id="flow3.3" depart="55.00" arrival="325.00">
        <route edges="a b c"/>
        <stop parkingArea="ParkAreaB" duration="200.00"/>
    </vehicle>

    <vehicle id="flow3.4" depart="60.00" arrival="330.00">
        <route edges="a b c"/>
        <stop parkingArea="ParkAreaB" duration="200.00"/>
    </vehicle>

    <vehicle id="flow3.5" depart="65.00" arrival="335.00">
        <route edges="a b c"/>
        <stop parkingArea="ParkAreaB" duration="200.00"/>
    </vehicle>

    <vehicle id="flow3.6" depart="70.00" arrival="340.00">
        <route edges="a b c"/>
        <stop parkingArea="ParkAreaB" duration="200.00"/>
    </vehicle>

    <vehicle id="flow1.0" depart="0.00" arrival="475.00">
        <route edges="a b c"/>
        <stop parkingArea="ParkAreaA" duration="200.00"/>
        <stop parkingArea="ParkAreaB" duration="200.00"/>
    </vehicle>

    <vehicle id="flow1.5" depart="25.00" arrival="495.00">
        <route edges="a b c"/>
        <stop parkingArea="ParkAreaB" duration="400.00"/>
    </vehicle>

    <vehicle id="flow1.6" depart="30.00" arrival="500.00">
        <route edges="a b c"/>
        <stop parkingArea="ParkAreaB" duration="400.00"/>
    </vehicle>

    <vehicle id="flow1.1" depart="5.00" arrival="601.00">
        <routeDistribution>
            <route replacedOnEdge="b" replacedAtTime="250.00" probability="0" edges="a b c"/>
            <route edges="a b -d f e -a a b c"/>
        </routeDistribution>
        <stop parkingArea="ParkAreaA" duration="200.00"/>
        <stop parkingArea="ParkAreaA" duration="200.00"/>
    </vehicle>

    <vehicle id="flow1.2" depart="10.00" arrival="606.00">
        <routeDistribution>
            <route replacedOnEdge="b" replacedAtTime="250.00" probability="0" edges="a b c"/>
            <route edges="a b -d f e -a a b c"/>
        </routeDistribution>
        <stop parkingArea="ParkAreaA" duration="200.00"/>
        <stop parkingArea="ParkAreaA" duration="200.00"/>
    </vehicle>

    <vehicle id="flow1.3" depart="15.00" arrival="611.00">
        <routeDistribution>
            <route replacedOnEdge="b" replacedAtTime="250.00" probability="0" edges="a b c"/>
            <route edges="a b -d f e -a a b c"/>
        </routeDistribution>
        <stop parkingArea="ParkAreaA" duration="200.00"/>
        <stop parkingArea="ParkAreaA" duration="200.00"/>
    </vehicle>

    <vehicle id="flow1.4" depart="20.00" arrival="617.00">
        <routeDistribution>
            <route replacedOnEdge="b" replacedAtTime="250.00" probability="0" edges="a b c"/>
            <route edges="a b -d f e -a a b c"/>
        </routeDistribution>
        <stop parkingArea="ParkAreaA" duration="200.00"/>
        <stop parkingArea="ParkAreaA" duration="200.00"/>
    </vehicle>

</routes>
