<?xml version="1.0"?>

<!-- generated on Tue Apr  9 17:06:06 2013 by SUMO sumo Version dev-SVN-r13602
<?xml version="1.0" encoding="UTF-8"?>

<configuration xmlns:xsi="http://www.w3.org/2001/XMLSchema-instance" xsi:noNamespaceSchemaLocation="http://sumo.sf.net/xsd/sumoConfiguration.xsd">

    <input>
        <net-file value="net.net.xml"/>
        <route-files value="input_routes.rou.xml"/>
        <additional-files value="input_additional.add.xml"/>
    </input>

    <output>
        <vehroute-output value="vehroutes.xml"/>
    </output>

    <report>
        <no-duration-log value="true"/>
        <no-step-log value="true"/>
    </report>

    <mesoscopic>
        <mesosim value="true"/>
    </mesoscopic>

</configuration>
-->

<netstats>
    <interval begin="0.00" end="300.00" id="expect10vehs">
        <edge id="beg" sampledSeconds="2923.45" traveltime="18.07" density="19.49" occupancy="9.74" waitingTime="0.00" speed="27.67" departed="167" arrived="0" entered="0" left="157" laneChangedFrom="0" laneChangedTo="0"/>
        <edge id="end" sampledSeconds="1456.36" traveltime="39.03" density="4.47" occupancy="2.24" waitingTime="0.00" speed="27.80" departed="0" arrived="35" entered="40" left="0" laneChangedFrom="0" laneChangedTo="0"/>
        <edge id="middle" sampledSeconds="23.32" traveltime="0.54" density="5.18" occupancy="2.59" waitingTime="0.00" speed="27.83" departed="0" arrived="0" entered="157" left="157" laneChangedFrom="0" laneChangedTo="0" vaporized="117"/>
    </interval>
</netstats>
