<?xml version="1.0" encoding="UTF-8"?>

<!-- generated on Thu Aug 22 10:13:28 2013 by SUMO sumo Version dev-SVN-r14432
<?xml version="1.0" encoding="UTF-8"?>

<configuration xmlns:xsi="http://www.w3.org/2001/XMLSchema-instance" xsi:noNamespaceSchemaLocation="http://sumo.sf.net/xsd/sumoConfiguration.xsd">

    <input>
        <net-file value="net.net.xml"/>
        <route-files value="input_routes.rou.xml"/>
        <additional-files value="input_additional.add.xml"/>
    </input>

    <output>
        <vehroute-output value="vehroutes.xml"/>
    </output>

    <report>
        <no-duration-log value="true"/>
        <no-step-log value="true"/>
    </report>

</configuration>
-->

<calibratorstats>
   <interval begin="0.00" end="300.00" id="calibtest" nVehContrib="10" removed="82" inserted="0" cleared="0" flow="120.00" aspiredFlow="120.00" speed="27.17" aspiredSpeed="-1.00" vaporizedOnNextEdge="34"/>
</calibratorstats>
