<?xml version="1.0"?>

<!-- generated on Tue Jun 19 15:44:10 2012 by SUMO sumo Version dev-SVN-r12396
<?xml version="1.0" encoding="UTF-8"?>

<configuration xmlns:xsi="http://www.w3.org/2001/XMLSchema-instance" xsi:noNamespaceSchemaLocation="http://sumo.sf.net/xsd/sumoConfiguration.xsd">

    <input>
        <net-file value="net.net.xml"/>
        <route-files value="input_routes.rou.xml"/>
        <additional-files value="input_additional.add.xml"/>
    </input>

    <output>
        <vehroute-output value="vehroutes.xml"/>
    </output>

    <report>
        <no-duration-log value="true"/>
        <no-step-log value="true"/>
    </report>

    <mesoscopic>
        <mesosim value="true"/>
    </mesoscopic>

</configuration>
-->

<calibratorstats>
   <interval begin="0.00" end="300.00" id="calibtest" nVehContrib="10" removed="147" inserted="0" cleared="0" flow="120.00" aspiredFlow="120.00" speed="27.80" aspiredSpeed="-1.00"/>
</calibratorstats>
