<?xml version="1.0" encoding="UTF-8"?>

<!-- generated on Wed Sep  4 18:08:28 2013 by SUMO sumo Version dev-SVN-r14576
<?xml version="1.0" encoding="UTF-8"?>

<configuration xmlns:xsi="http://www.w3.org/2001/XMLSchema-instance" xsi:noNamespaceSchemaLocation="http://sumo-sim.org/xsd/sumoConfiguration.xsd">

    <input>
        <net-file value="net.net.xml"/>
        <route-files value="input_routes.rou.xml"/>
        <additional-files value="input_additional.add.xml"/>
    </input>

    <output>
        <vehroute-output value="vehroutes.xml"/>
    </output>

    <report>
        <no-duration-log value="true"/>
        <no-step-log value="true"/>
    </report>

</configuration>
-->

<routes xmlns:xsi="http://www.w3.org/2001/XMLSchema-instance" xsi:noNamespaceSchemaLocation="http://sumo-sim.org/xsd/routes_file.xsd">
    <vehicle id="high.10" depart="26.00">
        <route edges="beg middle end"/>
    </vehicle>

    <vehicle id="high.11" depart="29.00">
        <route edges="beg middle end"/>
    </vehicle>

    <vehicle id="high.12" depart="32.00">
        <route edges="beg middle end"/>
    </vehicle>

    <vehicle id="high.13" depart="34.00">
        <route edges="beg middle end"/>
    </vehicle>

    <vehicle id="high.14" depart="37.00">
        <route edges="beg middle end"/>
    </vehicle>

    <vehicle id="high.0" depart="0.00" arrival="63.00">
        <route edges="beg middle end"/>
    </vehicle>

    <vehicle id="high.15" depart="40.00">
        <route edges="beg middle end"/>
    </vehicle>

    <vehicle id="high.1" depart="2.00" arrival="66.00">
        <route edges="beg middle end"/>
    </vehicle>

    <vehicle id="high.16" depart="42.00">
        <route edges="beg middle end"/>
    </vehicle>

    <vehicle id="high.2" depart="5.00" arrival="68.00">
        <route edges="beg middle end"/>
    </vehicle>

    <vehicle id="high.17" depart="45.00">
        <route edges="beg middle end"/>
    </vehicle>

    <vehicle id="high.3" depart="8.00" arrival="71.00">
        <route edges="beg middle end"/>
    </vehicle>

    <vehicle id="high.18" depart="48.00">
        <route edges="beg middle end"/>
    </vehicle>

    <vehicle id="high.4" depart="10.00" arrival="74.00">
        <route edges="beg middle end"/>
    </vehicle>

    <vehicle id="high.19" depart="50.00">
        <route edges="beg middle end"/>
    </vehicle>

    <vehicle id="high.5" depart="13.00" arrival="76.00">
        <route edges="beg middle end"/>
    </vehicle>

    <vehicle id="high.20" depart="53.00">
        <route edges="beg middle end"/>
    </vehicle>

    <vehicle id="high.6" depart="16.00" arrival="79.00">
        <route edges="beg middle end"/>
    </vehicle>

    <vehicle id="high.21" depart="56.00">
        <route edges="beg middle end"/>
    </vehicle>

    <vehicle id="high.7" depart="18.00" arrival="82.00">
        <route edges="beg middle end"/>
    </vehicle>

    <vehicle id="high.22" depart="58.00">
        <route edges="beg middle end"/>
    </vehicle>

    <vehicle id="high.8" depart="21.00" arrival="84.00">
        <route edges="beg middle end"/>
    </vehicle>

    <vehicle id="high.23" depart="61.00">
        <route edges="beg middle end"/>
    </vehicle>

    <vehicle id="high.9" depart="24.00" arrival="87.00">
        <route edges="beg middle end"/>
    </vehicle>

    <vehicle id="high.24" depart="64.00">
        <route edges="beg middle end"/>
    </vehicle>

    <vehicle id="high.25" depart="66.00">
        <route edges="beg middle end"/>
    </vehicle>

    <vehicle id="high.26" depart="69.00">
        <route edges="beg middle end"/>
    </vehicle>

    <vehicle id="high.27" depart="72.00">
        <route edges="beg middle end"/>
    </vehicle>

    <vehicle id="high.28" depart="74.00">
        <route edges="beg middle end"/>
    </vehicle>

    <vehicle id="high.29" depart="77.00">
        <route edges="beg middle end"/>
    </vehicle>

    <vehicle id="high.30" depart="80.00">
        <route edges="beg middle end"/>
    </vehicle>

    <vehicle id="high.31" depart="82.00">
        <route edges="beg middle end"/>
    </vehicle>

    <vehicle id="high.32" depart="85.00">
        <route edges="beg middle end"/>
    </vehicle>

    <vehicle id="high.33" depart="88.00">
        <route edges="beg middle end"/>
    </vehicle>

    <vehicle id="high.34" depart="90.00">
        <route edges="beg middle end"/>
    </vehicle>

    <vehicle id="high.35" depart="93.00">
        <route edges="beg middle end"/>
    </vehicle>

    <vehicle id="high.36" depart="96.00">
        <route edges="beg middle end"/>
    </vehicle>

    <vehicle id="high.37" depart="98.00">
        <route edges="beg middle end"/>
    </vehicle>

    <vehicle id="high.38" depart="101.00">
        <route edges="beg middle end"/>
    </vehicle>

    <vehicle id="high.39" depart="104.00">
        <route edges="beg middle end"/>
    </vehicle>

    <vehicle id="high.40" depart="106.00">
        <route edges="beg middle end"/>
    </vehicle>

    <vehicle id="high.41" depart="109.00">
        <route edges="beg middle end"/>
    </vehicle>

    <vehicle id="high.42" depart="112.00">
        <route edges="beg middle end"/>
    </vehicle>

    <vehicle id="high.43" depart="114.00">
        <route edges="beg middle end"/>
    </vehicle>

    <vehicle id="high.44" depart="117.00">
        <route edges="beg middle end"/>
    </vehicle>

    <vehicle id="high.45" depart="120.00">
        <route edges="beg middle end"/>
    </vehicle>

    <vehicle id="high.46" depart="122.00">
        <route edges="beg middle end"/>
    </vehicle>

    <vehicle id="high.47" depart="125.00">
        <route edges="beg middle end"/>
    </vehicle>

    <vehicle id="high.48" depart="128.00">
        <route edges="beg middle end"/>
    </vehicle>

    <vehicle id="high.49" depart="130.00">
        <route edges="beg middle end"/>
    </vehicle>

    <vehicle id="high.50" depart="133.00">
        <route edges="beg middle end"/>
    </vehicle>

    <vehicle id="high.51" depart="136.00">
        <route edges="beg middle end"/>
    </vehicle>

    <vehicle id="high.52" depart="138.00">
        <route edges="beg middle end"/>
    </vehicle>

    <vehicle id="high.53" depart="141.00">
        <route edges="beg middle end"/>
    </vehicle>

    <vehicle id="high.54" depart="144.00">
        <route edges="beg middle end"/>
    </vehicle>

    <vehicle id="high.55" depart="146.00">
        <route edges="beg middle end"/>
    </vehicle>

    <vehicle id="high.56" depart="149.00">
        <route edges="beg middle end"/>
    </vehicle>

    <vehicle id="high.57" depart="152.00">
        <route edges="beg middle end"/>
    </vehicle>

    <vehicle id="high.58" depart="154.00">
        <route edges="beg middle end"/>
    </vehicle>

    <vehicle id="high.59" depart="157.00">
        <route edges="beg middle end"/>
    </vehicle>

    <vehicle id="high.60" depart="160.00">
        <route edges="beg middle end"/>
    </vehicle>

    <vehicle id="high.61" depart="162.00">
        <route edges="beg middle end"/>
    </vehicle>

    <vehicle id="high.62" depart="165.00">
        <route edges="beg middle end"/>
    </vehicle>

    <vehicle id="high.63" depart="168.00">
        <route edges="beg middle end"/>
    </vehicle>

    <vehicle id="high.64" depart="170.00">
        <route edges="beg middle end"/>
    </vehicle>

    <vehicle id="high.65" depart="173.00">
        <route edges="beg middle end"/>
    </vehicle>

    <vehicle id="high.66" depart="176.00">
        <route edges="beg middle end"/>
    </vehicle>

    <vehicle id="high.67" depart="178.00">
        <route edges="beg middle end"/>
    </vehicle>

    <vehicle id="high.68" depart="181.00">
        <route edges="beg middle end"/>
    </vehicle>

    <vehicle id="high.69" depart="184.00">
        <route edges="beg middle end"/>
    </vehicle>

    <vehicle id="high.70" depart="186.00">
        <route edges="beg middle end"/>
    </vehicle>

    <vehicle id="high.71" depart="189.00">
        <route edges="beg middle end"/>
    </vehicle>

    <vehicle id="high.72" depart="192.00">
        <route edges="beg middle end"/>
    </vehicle>

    <vehicle id="high.73" depart="194.00">
        <route edges="beg middle end"/>
    </vehicle>

    <vehicle id="high.74" depart="197.00">
        <route edges="beg middle end"/>
    </vehicle>

    <vehicle id="high.75" depart="200.00">
        <route edges="beg middle end"/>
    </vehicle>

    <vehicle id="high.76" depart="202.00">
        <route edges="beg middle end"/>
    </vehicle>

    <vehicle id="high.77" depart="205.00">
        <route edges="beg middle end"/>
    </vehicle>

    <vehicle id="high.78" depart="208.00">
        <route edges="beg middle end"/>
    </vehicle>

    <vehicle id="high.79" depart="210.00">
        <route edges="beg middle end"/>
    </vehicle>

    <vehicle id="high.80" depart="213.00">
        <route edges="beg middle end"/>
    </vehicle>

    <vehicle id="high.81" depart="216.00">
        <route edges="beg middle end"/>
    </vehicle>

    <vehicle id="high.82" depart="218.00">
        <route edges="beg middle end"/>
    </vehicle>

    <vehicle id="high.83" depart="221.00">
        <route edges="beg middle end"/>
    </vehicle>

    <vehicle id="high.84" depart="224.00">
        <route edges="beg middle end"/>
    </vehicle>

    <vehicle id="high.85" depart="226.00">
        <route edges="beg middle end"/>
    </vehicle>

    <vehicle id="high.86" depart="229.00">
        <route edges="beg middle end"/>
    </vehicle>

    <vehicle id="high.87" depart="232.00">
        <route edges="beg middle end"/>
    </vehicle>

    <vehicle id="high.88" depart="234.00">
        <route edges="beg middle end"/>
    </vehicle>

    <vehicle id="high.89" depart="237.00">
        <route edges="beg middle end"/>
    </vehicle>

    <vehicle id="high.90" depart="240.00">
        <route edges="beg middle end"/>
    </vehicle>

    <vehicle id="high.91" depart="242.00">
        <route edges="beg middle end"/>
    </vehicle>

    <vehicle id="high.92" depart="245.00">
        <route edges="beg middle end"/>
    </vehicle>

    <vehicle id="high.93" depart="248.00">
        <route edges="beg middle end"/>
    </vehicle>

    <vehicle id="high.94" depart="250.00">
        <route edges="beg middle end"/>
    </vehicle>

    <vehicle id="high.95" depart="253.00">
        <route edges="beg middle end"/>
    </vehicle>

    <vehicle id="high.96" depart="256.00">
        <route edges="beg middle end"/>
    </vehicle>

    <vehicle id="high.97" depart="258.00">
        <route edges="beg middle end"/>
    </vehicle>

    <vehicle id="high.98" depart="261.00">
        <route edges="beg middle end"/>
    </vehicle>

    <vehicle id="high.99" depart="264.00">
        <route edges="beg middle end"/>
    </vehicle>

    <vehicle id="high.100" depart="266.00">
        <route edges="beg middle end"/>
    </vehicle>

    <vehicle id="high.101" depart="269.00">
        <route edges="beg middle end"/>
    </vehicle>

    <vehicle id="high.102" depart="272.00">
        <route edges="beg middle end"/>
    </vehicle>

    <vehicle id="high.103" depart="274.00">
        <route edges="beg middle end"/>
    </vehicle>

    <vehicle id="high.104" depart="277.00" arrival="340.00">
        <route edges="beg middle end"/>
    </vehicle>

    <vehicle id="high.105" depart="280.00" arrival="343.00">
        <route edges="beg middle end"/>
    </vehicle>

    <vehicle id="high.106" depart="282.00" arrival="346.00">
        <route edges="beg middle end"/>
    </vehicle>

    <vehicle id="high.107" depart="285.00" arrival="348.00">
        <route edges="beg middle end"/>
    </vehicle>

    <vehicle id="high.108" depart="288.00" arrival="351.00">
        <route edges="beg middle end"/>
    </vehicle>

    <vehicle id="high.109" depart="290.00" arrival="354.00">
        <route edges="beg middle end"/>
    </vehicle>

    <vehicle id="high.110" depart="293.00" arrival="356.00">
        <route edges="beg middle end"/>
    </vehicle>

    <vehicle id="high.111" depart="296.00" arrival="359.00">
        <route edges="beg middle end"/>
    </vehicle>

    <vehicle id="high.112" depart="298.00" arrival="362.00">
        <route edges="beg middle end"/>
    </vehicle>

    <vehicle id="high.113" depart="301.00" arrival="364.00">
        <route edges="beg middle end"/>
    </vehicle>

    <vehicle id="high.114" depart="304.00" arrival="367.00">
        <route edges="beg middle end"/>
    </vehicle>

    <vehicle id="high.115" depart="306.00" arrival="370.00">
        <route edges="beg middle end"/>
    </vehicle>

    <vehicle id="high.116" depart="309.00" arrival="372.00">
        <route edges="beg middle end"/>
    </vehicle>

    <vehicle id="high.117" depart="312.00" arrival="375.00">
        <route edges="beg middle end"/>
    </vehicle>

    <vehicle id="high.118" depart="314.00" arrival="378.00">
        <route edges="beg middle end"/>
    </vehicle>

    <vehicle id="high.119" depart="317.00" arrival="380.00">
        <route edges="beg middle end"/>
    </vehicle>

    <vehicle id="high.120" depart="320.00" arrival="383.00">
        <route edges="beg middle end"/>
    </vehicle>

    <vehicle id="high.121" depart="322.00" arrival="386.00">
        <route edges="beg middle end"/>
    </vehicle>

    <vehicle id="high.122" depart="325.00" arrival="388.00">
        <route edges="beg middle end"/>
    </vehicle>

    <vehicle id="high.123" depart="328.00" arrival="391.00">
        <route edges="beg middle end"/>
    </vehicle>

    <vehicle id="high.124" depart="330.00" arrival="394.00">
        <route edges="beg middle end"/>
    </vehicle>

    <vehicle id="high.125" depart="333.00" arrival="396.00">
        <route edges="beg middle end"/>
    </vehicle>

    <vehicle id="high.126" depart="336.00" arrival="399.00">
        <route edges="beg middle end"/>
    </vehicle>

    <vehicle id="high.127" depart="338.00" arrival="402.00">
        <route edges="beg middle end"/>
    </vehicle>

    <vehicle id="high.128" depart="341.00" arrival="404.00">
        <route edges="beg middle end"/>
    </vehicle>

    <vehicle id="high.129" depart="344.00" arrival="407.00">
        <route edges="beg middle end"/>
    </vehicle>

    <vehicle id="high.130" depart="346.00" arrival="410.00">
        <route edges="beg middle end"/>
    </vehicle>

    <vehicle id="high.131" depart="349.00" arrival="412.00">
        <route edges="beg middle end"/>
    </vehicle>

    <vehicle id="high.132" depart="352.00" arrival="415.00">
        <route edges="beg middle end"/>
    </vehicle>

    <vehicle id="high.133" depart="354.00" arrival="418.00">
        <route edges="beg middle end"/>
    </vehicle>

    <vehicle id="high.134" depart="357.00" arrival="420.00">
        <route edges="beg middle end"/>
    </vehicle>

    <vehicle id="high.135" depart="360.00" arrival="423.00">
        <route edges="beg middle end"/>
    </vehicle>

    <vehicle id="high.136" depart="362.00" arrival="426.00">
        <route edges="beg middle end"/>
    </vehicle>

    <vehicle id="high.137" depart="365.00" arrival="428.00">
        <route edges="beg middle end"/>
    </vehicle>

    <vehicle id="high.138" depart="368.00" arrival="431.00">
        <route edges="beg middle end"/>
    </vehicle>

    <vehicle id="high.139" depart="370.00" arrival="434.00">
        <route edges="beg middle end"/>
    </vehicle>

    <vehicle id="high.140" depart="373.00" arrival="436.00">
        <route edges="beg middle end"/>
    </vehicle>

    <vehicle id="high.141" depart="376.00" arrival="439.00">
        <route edges="beg middle end"/>
    </vehicle>

    <vehicle id="high.142" depart="378.00" arrival="442.00">
        <route edges="beg middle end"/>
    </vehicle>

    <vehicle id="high.143" depart="381.00" arrival="444.00">
        <route edges="beg middle end"/>
    </vehicle>

    <vehicle id="high.144" depart="384.00" arrival="447.00">
        <route edges="beg middle end"/>
    </vehicle>

    <vehicle id="high.145" depart="386.00" arrival="450.00">
        <route edges="beg middle end"/>
    </vehicle>

    <vehicle id="high.146" depart="389.00" arrival="452.00">
        <route edges="beg middle end"/>
    </vehicle>

    <vehicle id="high.147" depart="392.00" arrival="455.00">
        <route edges="beg middle end"/>
    </vehicle>

    <vehicle id="high.148" depart="394.00" arrival="458.00">
        <route edges="beg middle end"/>
    </vehicle>

    <vehicle id="high.149" depart="397.00" arrival="460.00">
        <route edges="beg middle end"/>
    </vehicle>

    <vehicle id="high.150" depart="400.00" arrival="463.00">
        <route edges="beg middle end"/>
    </vehicle>

    <vehicle id="high.151" depart="402.00" arrival="466.00">
        <route edges="beg middle end"/>
    </vehicle>

    <vehicle id="high.152" depart="405.00" arrival="468.00">
        <route edges="beg middle end"/>
    </vehicle>

    <vehicle id="high.153" depart="408.00" arrival="471.00">
        <route edges="beg middle end"/>
    </vehicle>

    <vehicle id="high.154" depart="410.00" arrival="474.00">
        <route edges="beg middle end"/>
    </vehicle>

    <vehicle id="high.155" depart="413.00" arrival="476.00">
        <route edges="beg middle end"/>
    </vehicle>

    <vehicle id="high.156" depart="416.00" arrival="479.00">
        <route edges="beg middle end"/>
    </vehicle>

    <vehicle id="high.157" depart="418.00" arrival="482.00">
        <route edges="beg middle end"/>
    </vehicle>

    <vehicle id="high.158" depart="421.00" arrival="484.00">
        <route edges="beg middle end"/>
    </vehicle>

    <vehicle id="high.159" depart="424.00" arrival="487.00">
        <route edges="beg middle end"/>
    </vehicle>

    <vehicle id="high.160" depart="426.00" arrival="490.00">
        <route edges="beg middle end"/>
    </vehicle>

    <vehicle id="high.161" depart="429.00" arrival="492.00">
        <route edges="beg middle end"/>
    </vehicle>

    <vehicle id="high.162" depart="432.00" arrival="495.00">
        <route edges="beg middle end"/>
    </vehicle>

    <vehicle id="high.163" depart="434.00" arrival="498.00">
        <route edges="beg middle end"/>
    </vehicle>

    <vehicle id="high.164" depart="437.00" arrival="500.00">
        <route edges="beg middle end"/>
    </vehicle>

    <vehicle id="high.165" depart="440.00" arrival="503.00">
        <route edges="beg middle end"/>
    </vehicle>

    <vehicle id="high.166" depart="442.00" arrival="506.00">
        <route edges="beg middle end"/>
    </vehicle>

    <vehicle id="high.167" depart="445.00" arrival="508.00">
        <route edges="beg middle end"/>
    </vehicle>

    <vehicle id="high.168" depart="448.00" arrival="511.00">
        <route edges="beg middle end"/>
    </vehicle>

    <vehicle id="high.169" depart="450.00" arrival="514.00">
        <route edges="beg middle end"/>
    </vehicle>

    <vehicle id="high.170" depart="453.00" arrival="516.00">
        <route edges="beg middle end"/>
    </vehicle>

    <vehicle id="high.171" depart="456.00" arrival="519.00">
        <route edges="beg middle end"/>
    </vehicle>

    <vehicle id="high.172" depart="458.00" arrival="522.00">
        <route edges="beg middle end"/>
    </vehicle>

    <vehicle id="high.173" depart="461.00" arrival="524.00">
        <route edges="beg middle end"/>
    </vehicle>

    <vehicle id="high.174" depart="464.00" arrival="527.00">
        <route edges="beg middle end"/>
    </vehicle>

    <vehicle id="high.175" depart="466.00" arrival="530.00">
        <route edges="beg middle end"/>
    </vehicle>

    <vehicle id="high.176" depart="469.00" arrival="532.00">
        <route edges="beg middle end"/>
    </vehicle>

    <vehicle id="high.177" depart="472.00" arrival="535.00">
        <route edges="beg middle end"/>
    </vehicle>

    <vehicle id="high.178" depart="474.00" arrival="538.00">
        <route edges="beg middle end"/>
    </vehicle>

    <vehicle id="high.179" depart="477.00" arrival="540.00">
        <route edges="beg middle end"/>
    </vehicle>

    <vehicle id="high.180" depart="480.00" arrival="543.00">
        <route edges="beg middle end"/>
    </vehicle>

    <vehicle id="high.181" depart="482.00" arrival="546.00">
        <route edges="beg middle end"/>
    </vehicle>

    <vehicle id="high.182" depart="485.00" arrival="548.00">
        <route edges="beg middle end"/>
    </vehicle>

    <vehicle id="high.183" depart="488.00" arrival="551.00">
        <route edges="beg middle end"/>
    </vehicle>

    <vehicle id="high.184" depart="490.00" arrival="554.00">
        <route edges="beg middle end"/>
    </vehicle>

    <vehicle id="high.185" depart="493.00" arrival="556.00">
        <route edges="beg middle end"/>
    </vehicle>

    <vehicle id="high.186" depart="496.00" arrival="559.00">
        <route edges="beg middle end"/>
    </vehicle>

    <vehicle id="high.187" depart="498.00" arrival="562.00">
        <route edges="beg middle end"/>
    </vehicle>

    <vehicle id="high.188" depart="501.00" arrival="564.00">
        <route edges="beg middle end"/>
    </vehicle>

    <vehicle id="high.189" depart="504.00" arrival="567.00">
        <route edges="beg middle end"/>
    </vehicle>

    <vehicle id="high.190" depart="506.00" arrival="570.00">
        <route edges="beg middle end"/>
    </vehicle>

    <vehicle id="high.191" depart="509.00" arrival="572.00">
        <route edges="beg middle end"/>
    </vehicle>

    <vehicle id="high.192" depart="512.00" arrival="575.00">
        <route edges="beg middle end"/>
    </vehicle>

    <vehicle id="high.193" depart="514.00" arrival="578.00">
        <route edges="beg middle end"/>
    </vehicle>

    <vehicle id="high.194" depart="517.00" arrival="580.00">
        <route edges="beg middle end"/>
    </vehicle>

    <vehicle id="high.195" depart="520.00" arrival="583.00">
        <route edges="beg middle end"/>
    </vehicle>

    <vehicle id="high.196" depart="522.00" arrival="586.00">
        <route edges="beg middle end"/>
    </vehicle>

    <vehicle id="high.197" depart="525.00" arrival="588.00">
        <route edges="beg middle end"/>
    </vehicle>

    <vehicle id="high.198" depart="528.00" arrival="591.00">
        <route edges="beg middle end"/>
    </vehicle>

    <vehicle id="high.199" depart="530.00" arrival="594.00">
        <route edges="beg middle end"/>
    </vehicle>

    <vehicle id="high.200" depart="533.00" arrival="596.00">
        <route edges="beg middle end"/>
    </vehicle>

    <vehicle id="high.201" depart="536.00" arrival="599.00">
        <route edges="beg middle end"/>
    </vehicle>

    <vehicle id="high.202" depart="538.00" arrival="602.00">
        <route edges="beg middle end"/>
    </vehicle>

    <vehicle id="high.203" depart="541.00" arrival="604.00">
        <route edges="beg middle end"/>
    </vehicle>

    <vehicle id="high.204" depart="544.00" arrival="607.00">
        <route edges="beg middle end"/>
    </vehicle>

    <vehicle id="high.205" depart="546.00" arrival="610.00">
        <route edges="beg middle end"/>
    </vehicle>

    <vehicle id="high.206" depart="549.00" arrival="612.00">
        <route edges="beg middle end"/>
    </vehicle>

    <vehicle id="high.207" depart="552.00" arrival="615.00">
        <route edges="beg middle end"/>
    </vehicle>

    <vehicle id="high.208" depart="554.00" arrival="618.00">
        <route edges="beg middle end"/>
    </vehicle>

    <vehicle id="high.209" depart="557.00" arrival="620.00">
        <route edges="beg middle end"/>
    </vehicle>

    <vehicle id="high.210" depart="560.00" arrival="623.00">
        <route edges="beg middle end"/>
    </vehicle>

    <vehicle id="high.211" depart="562.00" arrival="626.00">
        <route edges="beg middle end"/>
    </vehicle>

    <vehicle id="high.212" depart="565.00" arrival="628.00">
        <route edges="beg middle end"/>
    </vehicle>

    <vehicle id="high.213" depart="568.00" arrival="631.00">
        <route edges="beg middle end"/>
    </vehicle>

    <vehicle id="high.214" depart="570.00" arrival="634.00">
        <route edges="beg middle end"/>
    </vehicle>

    <vehicle id="high.215" depart="573.00" arrival="636.00">
        <route edges="beg middle end"/>
    </vehicle>

    <vehicle id="high.216" depart="576.00" arrival="639.00">
        <route edges="beg middle end"/>
    </vehicle>

    <vehicle id="high.217" depart="578.00" arrival="642.00">
        <route edges="beg middle end"/>
    </vehicle>

    <vehicle id="high.218" depart="581.00" arrival="644.00">
        <route edges="beg middle end"/>
    </vehicle>

    <vehicle id="high.219" depart="584.00" arrival="647.00">
        <route edges="beg middle end"/>
    </vehicle>

    <vehicle id="high.220" depart="586.00" arrival="650.00">
        <route edges="beg middle end"/>
    </vehicle>

    <vehicle id="high.221" depart="589.00" arrival="652.00">
        <route edges="beg middle end"/>
    </vehicle>

    <vehicle id="high.222" depart="592.00" arrival="655.00">
        <route edges="beg middle end"/>
    </vehicle>

    <vehicle id="high.223" depart="594.00" arrival="658.00">
        <route edges="beg middle end"/>
    </vehicle>

    <vehicle id="high.224" depart="597.00" arrival="660.00">
        <route edges="beg middle end"/>
    </vehicle>

    <vehicle id="high.225" depart="600.00" arrival="663.00">
        <route edges="beg middle end"/>
    </vehicle>

    <vehicle id="high.226" depart="602.00" arrival="666.00">
        <route edges="beg middle end"/>
    </vehicle>

    <vehicle id="high.227" depart="605.00" arrival="668.00">
        <route edges="beg middle end"/>
    </vehicle>

    <vehicle id="high.228" depart="608.00" arrival="671.00">
        <route edges="beg middle end"/>
    </vehicle>

    <vehicle id="high.229" depart="610.00" arrival="674.00">
        <route edges="beg middle end"/>
    </vehicle>

    <vehicle id="high.230" depart="613.00" arrival="676.00">
        <route edges="beg middle end"/>
    </vehicle>

    <vehicle id="high.231" depart="616.00" arrival="679.00">
        <route edges="beg middle end"/>
    </vehicle>

    <vehicle id="high.232" depart="618.00" arrival="682.00">
        <route edges="beg middle end"/>
    </vehicle>

    <vehicle id="high.233" depart="621.00" arrival="684.00">
        <route edges="beg middle end"/>
    </vehicle>

    <vehicle id="high.234" depart="624.00" arrival="687.00">
        <route edges="beg middle end"/>
    </vehicle>

    <vehicle id="high.235" depart="626.00" arrival="690.00">
        <route edges="beg middle end"/>
    </vehicle>

    <vehicle id="high.236" depart="629.00" arrival="692.00">
        <route edges="beg middle end"/>
    </vehicle>

    <vehicle id="high.237" depart="632.00" arrival="695.00">
        <route edges="beg middle end"/>
    </vehicle>

    <vehicle id="high.238" depart="634.00" arrival="698.00">
        <route edges="beg middle end"/>
    </vehicle>

    <vehicle id="high.239" depart="637.00" arrival="700.00">
        <route edges="beg middle end"/>
    </vehicle>

    <vehicle id="high.240" depart="640.00" arrival="703.00">
        <route edges="beg middle end"/>
    </vehicle>

    <vehicle id="high.241" depart="642.00" arrival="706.00">
        <route edges="beg middle end"/>
    </vehicle>

    <vehicle id="high.242" depart="645.00" arrival="708.00">
        <route edges="beg middle end"/>
    </vehicle>

    <vehicle id="high.243" depart="648.00" arrival="711.00">
        <route edges="beg middle end"/>
    </vehicle>

    <vehicle id="high.244" depart="650.00" arrival="714.00">
        <route edges="beg middle end"/>
    </vehicle>

    <vehicle id="high.245" depart="653.00" arrival="716.00">
        <route edges="beg middle end"/>
    </vehicle>

    <vehicle id="high.246" depart="656.00" arrival="719.00">
        <route edges="beg middle end"/>
    </vehicle>

    <vehicle id="high.247" depart="658.00" arrival="722.00">
        <route edges="beg middle end"/>
    </vehicle>

    <vehicle id="high.248" depart="661.00" arrival="724.00">
        <route edges="beg middle end"/>
    </vehicle>

    <vehicle id="high.249" depart="664.00" arrival="727.00">
        <route edges="beg middle end"/>
    </vehicle>

    <vehicle id="high.250" depart="666.00" arrival="730.00">
        <route edges="beg middle end"/>
    </vehicle>

    <vehicle id="high.251" depart="669.00" arrival="732.00">
        <route edges="beg middle end"/>
    </vehicle>

    <vehicle id="high.252" depart="672.00" arrival="735.00">
        <route edges="beg middle end"/>
    </vehicle>

    <vehicle id="high.253" depart="674.00" arrival="738.00">
        <route edges="beg middle end"/>
    </vehicle>

    <vehicle id="high.254" depart="677.00" arrival="740.00">
        <route edges="beg middle end"/>
    </vehicle>

    <vehicle id="high.255" depart="680.00" arrival="743.00">
        <route edges="beg middle end"/>
    </vehicle>

    <vehicle id="high.256" depart="682.00" arrival="746.00">
        <route edges="beg middle end"/>
    </vehicle>

    <vehicle id="high.257" depart="685.00" arrival="748.00">
        <route edges="beg middle end"/>
    </vehicle>

    <vehicle id="high.258" depart="688.00" arrival="751.00">
        <route edges="beg middle end"/>
    </vehicle>

    <vehicle id="high.259" depart="690.00" arrival="754.00">
        <route edges="beg middle end"/>
    </vehicle>

    <vehicle id="high.260" depart="693.00" arrival="756.00">
        <route edges="beg middle end"/>
    </vehicle>

    <vehicle id="high.261" depart="696.00" arrival="759.00">
        <route edges="beg middle end"/>
    </vehicle>

    <vehicle id="high.262" depart="698.00" arrival="762.00">
        <route edges="beg middle end"/>
    </vehicle>

    <vehicle id="high.263" depart="701.00" arrival="764.00">
        <route edges="beg middle end"/>
    </vehicle>
