<?xml version="1.0" encoding="UTF-8"?>

<!-- generated on Tue Dec  3 16:34:08 2013 by SUMO sumo Version dev-SVN-r15233
<?xml version="1.0" encoding="UTF-8"?>

<configuration xmlns:xsi="http://www.w3.org/2001/XMLSchema-instance" xsi:noNamespaceSchemaLocation="http://sumo-sim.org/xsd/sumoConfiguration.xsd">

    <input>
        <net-file value="net.net.xml"/>
        <route-files value="input_routes.rou.xml"/>
        <additional-files value="input_additional.add.xml"/>
    </input>

    <output>
        <vehroute-output value="vehroutes.xml"/>
    </output>

    <report>
        <no-duration-log value="true"/>
        <no-step-log value="true"/>
    </report>

</configuration>
-->

<routes xmlns:xsi="http://www.w3.org/2001/XMLSchema-instance" xsi:noNamespaceSchemaLocation="http://sumo-sim.org/xsd/routes_file.xsd">
    <vehicle id="high.10" depart="25.00">
        <route edges="beg middle end"/>
    </vehicle>

    <vehicle id="high.11" depart="27.00">
        <route edges="beg middle end"/>
    </vehicle>

    <vehicle id="high.12" depart="30.00">
        <route edges="beg middle end"/>
    </vehicle>

    <vehicle id="high.13" depart="32.00">
        <route edges="beg middle end"/>
    </vehicle>

    <vehicle id="high.14" depart="35.00">
        <route edges="beg middle end"/>
    </vehicle>

    <vehicle id="high.15" depart="37.00">
        <route edges="beg middle end"/>
    </vehicle>

    <vehicle id="high.0" depart="0.00" arrival="63.00">
        <route edges="beg middle end"/>
    </vehicle>

    <vehicle id="high.16" depart="40.00">
        <route edges="beg middle end"/>
    </vehicle>

    <vehicle id="high.1" depart="2.00" arrival="65.00">
        <route edges="beg middle end"/>
    </vehicle>

    <vehicle id="high.17" depart="42.00">
        <route edges="beg middle end"/>
    </vehicle>

    <vehicle id="high.2" depart="5.00" arrival="68.00">
        <route edges="beg middle end"/>
    </vehicle>

    <vehicle id="high.18" depart="45.00">
        <route edges="beg middle end"/>
    </vehicle>

    <vehicle id="high.3" depart="7.00" arrival="70.00">
        <route edges="beg middle end"/>
    </vehicle>

    <vehicle id="high.19" depart="47.00">
        <route edges="beg middle end"/>
    </vehicle>

    <vehicle id="high.4" depart="10.00" arrival="73.00">
        <route edges="beg middle end"/>
    </vehicle>

    <vehicle id="high.20" depart="50.00">
        <route edges="beg middle end"/>
    </vehicle>

    <vehicle id="high.5" depart="12.00" arrival="75.00">
        <route edges="beg middle end"/>
    </vehicle>

    <vehicle id="high.21" depart="52.00">
        <route edges="beg middle end"/>
    </vehicle>

    <vehicle id="high.6" depart="15.00" arrival="78.00">
        <route edges="beg middle end"/>
    </vehicle>

    <vehicle id="high.22" depart="55.00">
        <route edges="beg middle end"/>
    </vehicle>

    <vehicle id="high.7" depart="17.00" arrival="80.00">
        <route edges="beg middle end"/>
    </vehicle>

    <vehicle id="high.23" depart="57.00">
        <route edges="beg middle end"/>
    </vehicle>

    <vehicle id="high.8" depart="20.00" arrival="83.00">
        <route edges="beg middle end"/>
    </vehicle>

    <vehicle id="high.24" depart="60.00">
        <route edges="beg middle end"/>
    </vehicle>

    <vehicle id="high.9" depart="22.00" arrival="85.00">
        <route edges="beg middle end"/>
    </vehicle>

    <vehicle id="high.25" depart="62.00">
        <route edges="beg middle end"/>
    </vehicle>

    <vehicle id="high.26" depart="65.00">
        <route edges="beg middle end"/>
    </vehicle>

    <vehicle id="high.27" depart="67.00">
        <route edges="beg middle end"/>
    </vehicle>

    <vehicle id="high.28" depart="70.00">
        <route edges="beg middle end"/>
    </vehicle>

    <vehicle id="high.29" depart="72.00">
        <route edges="beg middle end"/>
    </vehicle>

    <vehicle id="high.30" depart="75.00">
        <route edges="beg middle end"/>
    </vehicle>

    <vehicle id="high.31" depart="77.00">
        <route edges="beg middle end"/>
    </vehicle>

    <vehicle id="high.32" depart="80.00">
        <route edges="beg middle end"/>
    </vehicle>

    <vehicle id="high.33" depart="82.00">
        <route edges="beg middle end"/>
    </vehicle>

    <vehicle id="high.34" depart="85.00">
        <route edges="beg middle end"/>
    </vehicle>

    <vehicle id="high.35" depart="87.00">
        <route edges="beg middle end"/>
    </vehicle>

    <vehicle id="high.36" depart="90.00">
        <route edges="beg middle end"/>
    </vehicle>

    <vehicle id="high.37" depart="92.00">
        <route edges="beg middle end"/>
    </vehicle>

    <vehicle id="high.38" depart="95.00">
        <route edges="beg middle end"/>
    </vehicle>

    <vehicle id="high.39" depart="97.00">
        <route edges="beg middle end"/>
    </vehicle>

    <vehicle id="high.40" depart="100.00">
        <route edges="beg middle end"/>
    </vehicle>

    <vehicle id="high.41" depart="102.00">
        <route edges="beg middle end"/>
    </vehicle>

    <vehicle id="high.42" depart="105.00">
        <route edges="beg middle end"/>
    </vehicle>

    <vehicle id="high.43" depart="107.00">
        <route edges="beg middle end"/>
    </vehicle>

    <vehicle id="high.44" depart="110.00">
        <route edges="beg middle end"/>
    </vehicle>

    <vehicle id="high.45" depart="112.00">
        <route edges="beg middle end"/>
    </vehicle>

    <vehicle id="high.46" depart="115.00">
        <route edges="beg middle end"/>
    </vehicle>

    <vehicle id="high.47" depart="117.00">
        <route edges="beg middle end"/>
    </vehicle>

    <vehicle id="high.48" depart="120.00">
        <route edges="beg middle end"/>
    </vehicle>

    <vehicle id="high.49" depart="122.00">
        <route edges="beg middle end"/>
    </vehicle>

    <vehicle id="high.50" depart="125.00">
        <route edges="beg middle end"/>
    </vehicle>

    <vehicle id="high.51" depart="127.00">
        <route edges="beg middle end"/>
    </vehicle>

    <vehicle id="high.52" depart="130.00">
        <route edges="beg middle end"/>
    </vehicle>

    <vehicle id="high.53" depart="132.00">
        <route edges="beg middle end"/>
    </vehicle>

    <vehicle id="high.54" depart="135.00">
        <route edges="beg middle end"/>
    </vehicle>

    <vehicle id="high.55" depart="137.00">
        <route edges="beg middle end"/>
    </vehicle>

    <vehicle id="high.56" depart="140.00">
        <route edges="beg middle end"/>
    </vehicle>

    <vehicle id="high.57" depart="142.00">
        <route edges="beg middle end"/>
    </vehicle>

    <vehicle id="high.58" depart="145.00">
        <route edges="beg middle end"/>
    </vehicle>

    <vehicle id="high.59" depart="147.00">
        <route edges="beg middle end"/>
    </vehicle>

    <vehicle id="high.60" depart="150.00">
        <route edges="beg middle end"/>
    </vehicle>

    <vehicle id="high.61" depart="152.00">
        <route edges="beg middle end"/>
    </vehicle>

    <vehicle id="high.62" depart="155.00">
        <route edges="beg middle end"/>
    </vehicle>

    <vehicle id="high.63" depart="157.00">
        <route edges="beg middle end"/>
    </vehicle>

    <vehicle id="high.64" depart="160.00">
        <route edges="beg middle end"/>
    </vehicle>

    <vehicle id="high.65" depart="162.00">
        <route edges="beg middle end"/>
    </vehicle>

    <vehicle id="high.66" depart="165.00">
        <route edges="beg middle end"/>
    </vehicle>

    <vehicle id="high.67" depart="167.00">
        <route edges="beg middle end"/>
    </vehicle>

    <vehicle id="high.68" depart="170.00">
        <route edges="beg middle end"/>
    </vehicle>

    <vehicle id="high.69" depart="172.00">
        <route edges="beg middle end"/>
    </vehicle>

    <vehicle id="high.70" depart="175.00">
        <route edges="beg middle end"/>
    </vehicle>

    <vehicle id="high.71" depart="177.00">
        <route edges="beg middle end"/>
    </vehicle>

    <vehicle id="high.72" depart="180.00">
        <route edges="beg middle end"/>
    </vehicle>

    <vehicle id="high.73" depart="182.00">
        <route edges="beg middle end"/>
    </vehicle>

    <vehicle id="high.74" depart="185.00">
        <route edges="beg middle end"/>
    </vehicle>

    <vehicle id="high.75" depart="187.00">
        <route edges="beg middle end"/>
    </vehicle>

    <vehicle id="high.76" depart="190.00">
        <route edges="beg middle end"/>
    </vehicle>

    <vehicle id="high.77" depart="192.00">
        <route edges="beg middle end"/>
    </vehicle>

    <vehicle id="high.78" depart="195.00">
        <route edges="beg middle end"/>
    </vehicle>

    <vehicle id="high.79" depart="197.00">
        <route edges="beg middle end"/>
    </vehicle>

    <vehicle id="high.80" depart="200.00">
        <route edges="beg middle end"/>
    </vehicle>

    <vehicle id="high.81" depart="202.00">
        <route edges="beg middle end"/>
    </vehicle>

    <vehicle id="high.82" depart="205.00">
        <route edges="beg middle end"/>
    </vehicle>

    <vehicle id="high.83" depart="207.00">
        <route edges="beg middle end"/>
    </vehicle>

    <vehicle id="high.84" depart="210.00">
        <route edges="beg middle end"/>
    </vehicle>

    <vehicle id="high.85" depart="212.00">
        <route edges="beg middle end"/>
    </vehicle>

    <vehicle id="high.86" depart="215.00">
        <route edges="beg middle end"/>
    </vehicle>

    <vehicle id="high.87" depart="217.00">
        <route edges="beg middle end"/>
    </vehicle>

    <vehicle id="high.88" depart="220.00">
        <route edges="beg middle end"/>
    </vehicle>

    <vehicle id="high.89" depart="222.00">
        <route edges="beg middle end"/>
    </vehicle>

    <vehicle id="high.90" depart="225.00">
        <route edges="beg middle end"/>
    </vehicle>

    <vehicle id="high.91" depart="227.00">
        <route edges="beg middle end"/>
    </vehicle>

    <vehicle id="high.92" depart="230.00">
        <route edges="beg middle end"/>
    </vehicle>

    <vehicle id="high.93" depart="232.00">
        <route edges="beg middle end"/>
    </vehicle>

    <vehicle id="high.94" depart="235.00">
        <route edges="beg middle end"/>
    </vehicle>

    <vehicle id="high.95" depart="237.00">
        <route edges="beg middle end"/>
    </vehicle>

    <vehicle id="high.96" depart="240.00">
        <route edges="beg middle end"/>
    </vehicle>

    <vehicle id="high.97" depart="242.00">
        <route edges="beg middle end"/>
    </vehicle>

    <vehicle id="high.98" depart="245.00">
        <route edges="beg middle end"/>
    </vehicle>

    <vehicle id="high.99" depart="247.00">
        <route edges="beg middle end"/>
    </vehicle>

    <vehicle id="high.100" depart="250.00">
        <route edges="beg middle end"/>
    </vehicle>

    <vehicle id="high.101" depart="252.00">
        <route edges="beg middle end"/>
    </vehicle>

    <vehicle id="high.102" depart="255.00">
        <route edges="beg middle end"/>
    </vehicle>

    <vehicle id="high.103" depart="257.00">
        <route edges="beg middle end"/>
    </vehicle>

    <vehicle id="high.104" depart="260.00">
        <route edges="beg middle end"/>
    </vehicle>

    <vehicle id="high.105" depart="262.00">
        <route edges="beg middle end"/>
    </vehicle>

    <vehicle id="high.106" depart="265.00">
        <route edges="beg middle end"/>
    </vehicle>

    <vehicle id="high.107" depart="267.00">
        <route edges="beg middle end"/>
    </vehicle>

    <vehicle id="high.108" depart="270.00">
        <route edges="beg middle end"/>
    </vehicle>

    <vehicle id="high.109" depart="272.00">
        <route edges="beg middle end"/>
    </vehicle>

    <vehicle id="high.110" depart="275.00">
        <route edges="beg middle end"/>
    </vehicle>

    <vehicle id="high.111" depart="277.00" arrival="340.00">
        <route edges="beg middle end"/>
    </vehicle>

    <vehicle id="high.112" depart="280.00" arrival="343.00">
        <route edges="beg middle end"/>
    </vehicle>

    <vehicle id="high.113" depart="282.00" arrival="345.00">
        <route edges="beg middle end"/>
    </vehicle>

    <vehicle id="high.114" depart="285.00" arrival="348.00">
        <route edges="beg middle end"/>
    </vehicle>

    <vehicle id="high.115" depart="287.00" arrival="350.00">
        <route edges="beg middle end"/>
    </vehicle>

    <vehicle id="high.116" depart="290.00" arrival="353.00">
        <route edges="beg middle end"/>
    </vehicle>

    <vehicle id="high.117" depart="292.00" arrival="355.00">
        <route edges="beg middle end"/>
    </vehicle>

    <vehicle id="high.118" depart="295.00" arrival="358.00">
        <route edges="beg middle end"/>
    </vehicle>

    <vehicle id="high.119" depart="297.00" arrival="360.00">
        <route edges="beg middle end"/>
    </vehicle>

    <vehicle id="high.120" depart="300.00" arrival="363.00">
        <route edges="beg middle end"/>
    </vehicle>

    <vehicle id="high.121" depart="302.00" arrival="365.00">
        <route edges="beg middle end"/>
    </vehicle>

    <vehicle id="high.122" depart="305.00" arrival="368.00">
        <route edges="beg middle end"/>
    </vehicle>

    <vehicle id="high.123" depart="307.00" arrival="370.00">
        <route edges="beg middle end"/>
    </vehicle>

    <vehicle id="high.124" depart="310.00" arrival="373.00">
        <route edges="beg middle end"/>
    </vehicle>

    <vehicle id="high.125" depart="312.00" arrival="375.00">
        <route edges="beg middle end"/>
    </vehicle>

    <vehicle id="high.126" depart="315.00" arrival="378.00">
        <route edges="beg middle end"/>
    </vehicle>

    <vehicle id="high.127" depart="317.00" arrival="380.00">
        <route edges="beg middle end"/>
    </vehicle>

    <vehicle id="high.128" depart="320.00" arrival="383.00">
        <route edges="beg middle end"/>
    </vehicle>

    <vehicle id="high.129" depart="322.00" arrival="385.00">
        <route edges="beg middle end"/>
    </vehicle>

    <vehicle id="high.130" depart="325.00" arrival="388.00">
        <route edges="beg middle end"/>
    </vehicle>

    <vehicle id="high.131" depart="327.00" arrival="390.00">
        <route edges="beg middle end"/>
    </vehicle>

    <vehicle id="high.132" depart="330.00" arrival="393.00">
        <route edges="beg middle end"/>
    </vehicle>

    <vehicle id="high.133" depart="332.00" arrival="395.00">
        <route edges="beg middle end"/>
    </vehicle>

    <vehicle id="high.134" depart="335.00" arrival="398.00">
        <route edges="beg middle end"/>
    </vehicle>

    <vehicle id="high.135" depart="337.00" arrival="400.00">
        <route edges="beg middle end"/>
    </vehicle>

    <vehicle id="high.136" depart="340.00" arrival="403.00">
        <route edges="beg middle end"/>
    </vehicle>

    <vehicle id="high.137" depart="342.00" arrival="405.00">
        <route edges="beg middle end"/>
    </vehicle>

    <vehicle id="high.138" depart="345.00" arrival="408.00">
        <route edges="beg middle end"/>
    </vehicle>

    <vehicle id="high.139" depart="347.00" arrival="410.00">
        <route edges="beg middle end"/>
    </vehicle>

    <vehicle id="high.140" depart="350.00" arrival="413.00">
        <route edges="beg middle end"/>
    </vehicle>

    <vehicle id="high.141" depart="352.00" arrival="415.00">
        <route edges="beg middle end"/>
    </vehicle>

    <vehicle id="high.142" depart="355.00" arrival="418.00">
        <route edges="beg middle end"/>
    </vehicle>

    <vehicle id="high.143" depart="357.00" arrival="420.00">
        <route edges="beg middle end"/>
    </vehicle>

    <vehicle id="high.144" depart="360.00" arrival="423.00">
        <route edges="beg middle end"/>
    </vehicle>

    <vehicle id="high.145" depart="362.00" arrival="425.00">
        <route edges="beg middle end"/>
    </vehicle>

    <vehicle id="high.146" depart="365.00" arrival="428.00">
        <route edges="beg middle end"/>
    </vehicle>

    <vehicle id="high.147" depart="367.00" arrival="430.00">
        <route edges="beg middle end"/>
    </vehicle>

    <vehicle id="high.148" depart="370.00" arrival="433.00">
        <route edges="beg middle end"/>
    </vehicle>

    <vehicle id="high.149" depart="372.00" arrival="435.00">
        <route edges="beg middle end"/>
    </vehicle>

    <vehicle id="high.150" depart="375.00" arrival="438.00">
        <route edges="beg middle end"/>
    </vehicle>

    <vehicle id="high.151" depart="377.00" arrival="440.00">
        <route edges="beg middle end"/>
    </vehicle>

    <vehicle id="high.152" depart="380.00" arrival="443.00">
        <route edges="beg middle end"/>
    </vehicle>

    <vehicle id="high.153" depart="382.00" arrival="445.00">
        <route edges="beg middle end"/>
    </vehicle>

    <vehicle id="high.154" depart="385.00" arrival="448.00">
        <route edges="beg middle end"/>
    </vehicle>

    <vehicle id="high.155" depart="387.00" arrival="450.00">
        <route edges="beg middle end"/>
    </vehicle>

    <vehicle id="high.156" depart="390.00" arrival="453.00">
        <route edges="beg middle end"/>
    </vehicle>

    <vehicle id="high.157" depart="392.00" arrival="455.00">
        <route edges="beg middle end"/>
    </vehicle>

    <vehicle id="high.158" depart="395.00" arrival="458.00">
        <route edges="beg middle end"/>
    </vehicle>

    <vehicle id="high.159" depart="397.00" arrival="460.00">
        <route edges="beg middle end"/>
    </vehicle>

    <vehicle id="high.160" depart="400.00" arrival="463.00">
        <route edges="beg middle end"/>
    </vehicle>

    <vehicle id="high.161" depart="402.00" arrival="465.00">
        <route edges="beg middle end"/>
    </vehicle>

    <vehicle id="high.162" depart="405.00" arrival="468.00">
        <route edges="beg middle end"/>
    </vehicle>

    <vehicle id="high.163" depart="407.00" arrival="470.00">
        <route edges="beg middle end"/>
    </vehicle>

    <vehicle id="high.164" depart="410.00" arrival="473.00">
        <route edges="beg middle end"/>
    </vehicle>

    <vehicle id="high.165" depart="412.00" arrival="475.00">
        <route edges="beg middle end"/>
    </vehicle>

    <vehicle id="high.166" depart="415.00" arrival="478.00">
        <route edges="beg middle end"/>
    </vehicle>

    <vehicle id="high.167" depart="417.00" arrival="480.00">
        <route edges="beg middle end"/>
    </vehicle>

    <vehicle id="high.168" depart="420.00" arrival="483.00">
        <route edges="beg middle end"/>
    </vehicle>

    <vehicle id="high.169" depart="422.00" arrival="485.00">
        <route edges="beg middle end"/>
    </vehicle>

    <vehicle id="high.170" depart="425.00" arrival="488.00">
        <route edges="beg middle end"/>
    </vehicle>

    <vehicle id="high.171" depart="427.00" arrival="490.00">
        <route edges="beg middle end"/>
    </vehicle>

    <vehicle id="high.172" depart="430.00" arrival="493.00">
        <route edges="beg middle end"/>
    </vehicle>

    <vehicle id="high.173" depart="432.00" arrival="495.00">
        <route edges="beg middle end"/>
    </vehicle>

    <vehicle id="high.174" depart="435.00" arrival="498.00">
        <route edges="beg middle end"/>
    </vehicle>

    <vehicle id="high.175" depart="437.00" arrival="500.00">
        <route edges="beg middle end"/>
    </vehicle>

    <vehicle id="high.176" depart="440.00" arrival="503.00">
        <route edges="beg middle end"/>
    </vehicle>

    <vehicle id="high.177" depart="442.00" arrival="505.00">
        <route edges="beg middle end"/>
    </vehicle>

    <vehicle id="high.178" depart="445.00" arrival="508.00">
        <route edges="beg middle end"/>
    </vehicle>

    <vehicle id="high.179" depart="447.00" arrival="510.00">
        <route edges="beg middle end"/>
    </vehicle>

    <vehicle id="high.180" depart="450.00" arrival="513.00">
        <route edges="beg middle end"/>
    </vehicle>

    <vehicle id="high.181" depart="452.00" arrival="515.00">
        <route edges="beg middle end"/>
    </vehicle>

    <vehicle id="high.182" depart="455.00" arrival="518.00">
        <route edges="beg middle end"/>
    </vehicle>

    <vehicle id="high.183" depart="457.00" arrival="520.00">
        <route edges="beg middle end"/>
    </vehicle>

    <vehicle id="high.184" depart="460.00" arrival="523.00">
        <route edges="beg middle end"/>
    </vehicle>

    <vehicle id="high.185" depart="462.00" arrival="525.00">
        <route edges="beg middle end"/>
    </vehicle>

    <vehicle id="high.186" depart="465.00" arrival="528.00">
        <route edges="beg middle end"/>
    </vehicle>

    <vehicle id="high.187" depart="467.00" arrival="530.00">
        <route edges="beg middle end"/>
    </vehicle>

    <vehicle id="high.188" depart="470.00" arrival="533.00">
        <route edges="beg middle end"/>
    </vehicle>

    <vehicle id="high.189" depart="472.00" arrival="535.00">
        <route edges="beg middle end"/>
    </vehicle>

    <vehicle id="high.190" depart="475.00" arrival="538.00">
        <route edges="beg middle end"/>
    </vehicle>

    <vehicle id="high.191" depart="477.00" arrival="540.00">
        <route edges="beg middle end"/>
    </vehicle>

    <vehicle id="high.192" depart="480.00" arrival="543.00">
        <route edges="beg middle end"/>
    </vehicle>

    <vehicle id="high.193" depart="482.00" arrival="545.00">
        <route edges="beg middle end"/>
    </vehicle>

    <vehicle id="high.194" depart="485.00" arrival="548.00">
        <route edges="beg middle end"/>
    </vehicle>

    <vehicle id="high.195" depart="487.00" arrival="550.00">
        <route edges="beg middle end"/>
    </vehicle>

    <vehicle id="high.196" depart="490.00" arrival="553.00">
        <route edges="beg middle end"/>
    </vehicle>

    <vehicle id="high.197" depart="492.00" arrival="555.00">
        <route edges="beg middle end"/>
    </vehicle>

    <vehicle id="high.198" depart="495.00" arrival="558.00">
        <route edges="beg middle end"/>
    </vehicle>

    <vehicle id="high.199" depart="497.00" arrival="560.00">
        <route edges="beg middle end"/>
    </vehicle>

    <vehicle id="high.200" depart="500.00" arrival="563.00">
        <route edges="beg middle end"/>
    </vehicle>

    <vehicle id="high.201" depart="502.00" arrival="565.00">
        <route edges="beg middle end"/>
    </vehicle>

    <vehicle id="high.202" depart="505.00" arrival="568.00">
        <route edges="beg middle end"/>
    </vehicle>

    <vehicle id="high.203" depart="507.00" arrival="570.00">
        <route edges="beg middle end"/>
    </vehicle>

    <vehicle id="high.204" depart="510.00" arrival="573.00">
        <route edges="beg middle end"/>
    </vehicle>

    <vehicle id="high.205" depart="512.00" arrival="575.00">
        <route edges="beg middle end"/>
    </vehicle>

    <vehicle id="high.206" depart="515.00" arrival="578.00">
        <route edges="beg middle end"/>
    </vehicle>

    <vehicle id="high.207" depart="517.00" arrival="580.00">
        <route edges="beg middle end"/>
    </vehicle>

    <vehicle id="high.208" depart="520.00" arrival="583.00">
        <route edges="beg middle end"/>
    </vehicle>

    <vehicle id="high.209" depart="522.00" arrival="585.00">
        <route edges="beg middle end"/>
    </vehicle>

    <vehicle id="high.210" depart="525.00" arrival="588.00">
        <route edges="beg middle end"/>
    </vehicle>

    <vehicle id="high.211" depart="527.00" arrival="590.00">
        <route edges="beg middle end"/>
    </vehicle>

    <vehicle id="high.212" depart="530.00" arrival="593.00">
        <route edges="beg middle end"/>
    </vehicle>

    <vehicle id="high.213" depart="532.00" arrival="595.00">
        <route edges="beg middle end"/>
    </vehicle>

    <vehicle id="high.214" depart="535.00" arrival="598.00">
        <route edges="beg middle end"/>
    </vehicle>

    <vehicle id="high.215" depart="537.00" arrival="600.00">
        <route edges="beg middle end"/>
    </vehicle>

    <vehicle id="high.216" depart="540.00" arrival="603.00">
        <route edges="beg middle end"/>
    </vehicle>

    <vehicle id="high.217" depart="542.00" arrival="605.00">
        <route edges="beg middle end"/>
    </vehicle>

    <vehicle id="high.218" depart="545.00" arrival="608.00">
        <route edges="beg middle end"/>
    </vehicle>

    <vehicle id="high.219" depart="547.00" arrival="610.00">
        <route edges="beg middle end"/>
    </vehicle>

    <vehicle id="high.220" depart="550.00" arrival="613.00">
        <route edges="beg middle end"/>
    </vehicle>

    <vehicle id="high.221" depart="552.00" arrival="615.00">
        <route edges="beg middle end"/>
    </vehicle>

    <vehicle id="high.222" depart="555.00" arrival="618.00">
        <route edges="beg middle end"/>
    </vehicle>

    <vehicle id="high.223" depart="557.00" arrival="620.00">
        <route edges="beg middle end"/>
    </vehicle>

    <vehicle id="high.224" depart="560.00" arrival="623.00">
        <route edges="beg middle end"/>
    </vehicle>

    <vehicle id="high.225" depart="562.00" arrival="625.00">
        <route edges="beg middle end"/>
    </vehicle>

    <vehicle id="high.226" depart="565.00" arrival="628.00">
        <route edges="beg middle end"/>
    </vehicle>

    <vehicle id="high.227" depart="567.00" arrival="630.00">
        <route edges="beg middle end"/>
    </vehicle>

    <vehicle id="high.228" depart="570.00" arrival="633.00">
        <route edges="beg middle end"/>
    </vehicle>

    <vehicle id="high.229" depart="572.00" arrival="635.00">
        <route edges="beg middle end"/>
    </vehicle>

    <vehicle id="high.230" depart="575.00" arrival="638.00">
        <route edges="beg middle end"/>
    </vehicle>

    <vehicle id="high.231" depart="577.00" arrival="640.00">
        <route edges="beg middle end"/>
    </vehicle>

    <vehicle id="high.232" depart="580.00" arrival="643.00">
        <route edges="beg middle end"/>
    </vehicle>

    <vehicle id="high.233" depart="582.00" arrival="645.00">
        <route edges="beg middle end"/>
    </vehicle>

    <vehicle id="high.234" depart="585.00" arrival="648.00">
        <route edges="beg middle end"/>
    </vehicle>

    <vehicle id="high.235" depart="587.00" arrival="650.00">
        <route edges="beg middle end"/>
    </vehicle>

    <vehicle id="high.236" depart="590.00" arrival="653.00">
        <route edges="beg middle end"/>
    </vehicle>

    <vehicle id="high.237" depart="592.00" arrival="655.00">
        <route edges="beg middle end"/>
    </vehicle>

    <vehicle id="high.238" depart="595.00" arrival="658.00">
        <route edges="beg middle end"/>
    </vehicle>

    <vehicle id="high.239" depart="597.00" arrival="660.00">
        <route edges="beg middle end"/>
    </vehicle>

    <vehicle id="high.240" depart="600.00" arrival="663.00">
        <route edges="beg middle end"/>
    </vehicle>

    <vehicle id="high.241" depart="602.00" arrival="665.00">
        <route edges="beg middle end"/>
    </vehicle>

    <vehicle id="high.242" depart="605.00" arrival="668.00">
        <route edges="beg middle end"/>
    </vehicle>

    <vehicle id="high.243" depart="607.00" arrival="670.00">
        <route edges="beg middle end"/>
    </vehicle>

    <vehicle id="high.244" depart="610.00" arrival="673.00">
        <route edges="beg middle end"/>
    </vehicle>

    <vehicle id="high.245" depart="612.00" arrival="675.00">
        <route edges="beg middle end"/>
    </vehicle>

    <vehicle id="high.246" depart="615.00" arrival="678.00">
        <route edges="beg middle end"/>
    </vehicle>

    <vehicle id="high.247" depart="617.00" arrival="680.00">
        <route edges="beg middle end"/>
    </vehicle>

    <vehicle id="high.248" depart="620.00" arrival="683.00">
        <route edges="beg middle end"/>
    </vehicle>

    <vehicle id="high.249" depart="622.00" arrival="685.00">
        <route edges="beg middle end"/>
    </vehicle>

    <vehicle id="high.250" depart="625.00" arrival="688.00">
        <route edges="beg middle end"/>
    </vehicle>

    <vehicle id="high.251" depart="627.00" arrival="690.00">
        <route edges="beg middle end"/>
    </vehicle>

    <vehicle id="high.252" depart="630.00" arrival="693.00">
        <route edges="beg middle end"/>
    </vehicle>

    <vehicle id="high.253" depart="632.00" arrival="695.00">
        <route edges="beg middle end"/>
    </vehicle>

    <vehicle id="high.254" depart="635.00" arrival="698.00">
        <route edges="beg middle end"/>
    </vehicle>

    <vehicle id="high.255" depart="637.00" arrival="700.00">
        <route edges="beg middle end"/>
    </vehicle>

    <vehicle id="high.256" depart="640.00" arrival="703.00">
        <route edges="beg middle end"/>
    </vehicle>

    <vehicle id="high.257" depart="642.00" arrival="705.00">
        <route edges="beg middle end"/>
    </vehicle>

    <vehicle id="high.258" depart="645.00" arrival="708.00">
        <route edges="beg middle end"/>
    </vehicle>

    <vehicle id="high.259" depart="647.00" arrival="710.00">
        <route edges="beg middle end"/>
    </vehicle>

    <vehicle id="high.260" depart="650.00" arrival="713.00">
        <route edges="beg middle end"/>
    </vehicle>

    <vehicle id="high.261" depart="652.00" arrival="715.00">
        <route edges="beg middle end"/>
    </vehicle>

    <vehicle id="high.262" depart="655.00" arrival="718.00">
        <route edges="beg middle end"/>
    </vehicle>

    <vehicle id="high.263" depart="657.00" arrival="720.00">
        <route edges="beg middle end"/>
    </vehicle>

    <vehicle id="high.264" depart="660.00" arrival="723.00">
        <route edges="beg middle end"/>
    </vehicle>
