<?xml version="1.0" encoding="UTF-8"?>

<!-- generated on 2026-04-24T08:56:27.947246+01:00 by Eclipse SUMO sumo v1_26_0+1365-2fbd4cee860
<sumoConfiguration xmlns:xsi="http://www.w3.org/2001/XMLSchema-instance" xsi:noNamespaceSchemaLocation="http://sumo.dlr.de/xsd/sumoConfiguration.xsd">

    <input>
        <net-file value="net.net.xml"/>
        <route-files value="input_routes.rou.xml,input_routes2.rou.xml"/>
    </input>

    <output>
        <tripinfo-output value="tripinfo.xml"/>
        <tripinfo-output.write-unfinished value="true"/>
        <vehroute-output value="vehroutes.xml"/>
        <vehroute-output.write-unfinished value="true"/>
        <save-state.times value="30"/>
        <save-state.files value="state.xml"/>
        <save-state.rng value="true"/>
        <save-state.transportables value="true"/>
        <save-state.precision value="15"/>
    </output>

    <time>
        <end value="80"/>
    </time>

    <processing>
        <default.departspeed value="0"/>
        <default.departlane value="first"/>
    </processing>

    <routing>
        <device.rerouting.adaptation-steps value="10"/>
        <device.rerouting.adaptation-interval value="10"/>
        <device.rerouting.output value="weights.xml"/>
    </routing>

    <report>
        <duration-log.statistics value="true"/>
        <no-step-log value="true"/>
    </report>

    <taxi_device>
        <device.taxi.dispatch-algorithm.output value="dispatchinfos.xml"/>
    </taxi_device>

</sumoConfiguration>
-->

<snapshot type="micro" version="v1_26_0+1365-2fbd4cee860" time="30.000" xmlns:xsi="http://www.w3.org/2001/XMLSchema-instance" xsi:noNamespaceSchemaLocation="http://sumo.dlr.de/xsd/state_file.xsd">
    <rngState default="0" routeHandler="8" insertionControl="0" device="0" device.btreceiver="0" driverState="0" device.toc="0">
        <rngLane index="0" state="0"/>
        <rngLane index="1" state="30"/>
        <rngLane index="2" state="0"/>
        <rngLane index="3" state="0"/>
        <rngLane index="4" state="0"/>
        <rngLane index="5" state="0"/>
        <rngLane index="6" state="0"/>
        <rngLane index="7" state="0"/>
        <rngLane index="8" state="0"/>
        <rngLane index="9" state="0"/>
        <rngLane index="10" state="0"/>
        <rngLane index="11" state="0"/>
        <rngLane index="12" state="0"/>
        <rngLane index="13" state="0"/>
        <rngLane index="14" state="0"/>
        <rngLane index="15" state="0"/>
        <rngLane index="16" state="0"/>
        <rngLane index="17" state="0"/>
        <rngLane index="18" state="0"/>
        <rngLane index="19" state="0"/>
        <rngLane index="20" state="0"/>
        <rngLane index="21" state="0"/>
        <rngLane index="22" state="0"/>
        <rngLane index="23" state="0"/>
        <rngLane index="24" state="0"/>
        <rngLane index="25" state="0"/>
        <rngLane index="26" state="0"/>
        <rngLane index="27" state="0"/>
        <rngLane index="28" state="0"/>
        <rngLane index="29" state="0"/>
        <rngLane index="30" state="0"/>
        <rngLane index="31" state="0"/>
        <rngLane index="32" state="0"/>
        <rngLane index="33" state="0"/>
        <rngLane index="34" state="0"/>
        <rngLane index="35" state="0"/>
        <rngLane index="36" state="0"/>
        <rngLane index="37" state="0"/>
        <rngLane index="38" state="0"/>
        <rngLane index="39" state="0"/>
        <rngLane index="40" state="0"/>
        <rngLane index="41" state="0"/>
        <rngLane index="42" state="0"/>
        <rngLane index="43" state="0"/>
        <rngLane index="44" state="0"/>
        <rngLane index="45" state="0"/>
        <rngLane index="46" state="0"/>
        <rngLane index="47" state="0"/>
        <rngLane index="48" state="0"/>
        <rngLane index="49" state="0"/>
        <rngLane index="50" state="0"/>
        <rngLane index="51" state="0"/>
        <rngLane index="52" state="0"/>
        <rngLane index="53" state="0"/>
        <rngLane index="54" state="0"/>
        <rngLane index="55" state="0"/>
        <rngLane index="56" state="0"/>
        <rngLane index="57" state="0"/>
        <rngLane index="58" state="0"/>
        <rngLane index="59" state="0"/>
        <rngLane index="60" state="0"/>
        <rngLane index="61" state="0"/>
        <rngLane index="62" state="0"/>
        <rngLane index="63" state="0"/>
    </rngState>
    <edgeControl lanes="A0B0_1"/>
    <dispatcher next="60000" count="1" customers="p0 0 "/>
    <route id="!trip_0!var#1" state="0" edges="A0B0 B0C0"/>
    <route id="r0" state="1" edges="A0B0"/>
    <delay number="2" begin="2" end="0" depart="3.000000000000000" time="0.000000000000000" speedFactor="1.030000000000000" decel="4.500000000000000" loaderTime="50000"/>
    <vType id="DEFAULT_PEDTYPE" vClass="pedestrian"/>
    <vType id="taxi" vClass="taxi">
        <param key="has.taxi.device" value="true"/>
    </vType>
    <vehicle id="trip_0" type="taxi" depart="0.000" route="!trip_0!var#1" distance="0 1" speedFactor="1.030000000000000" line="taxi" state="2050 0 0 5.100000000000000 0 6.621343334327465 29000 0 0 1" pos="251.358378587936642 246.358378587936642 13.571504251422175" speed="13.571504251422175 13.854048832339050" angle="90.000000000000000" posLat="0.000000000000000" waitingTime="100000 1 21000 23000" lcStateBase="0.000000000000000" lcState2="0 0 0 0 0">
        <stop lane="A0B0_1" startPos="20.000000000000000" endPos="20.000000000000000" duration="0.000" triggered="person" parking="1" permitted="p0" actType="pickup p0 (0)" started="9.000" ended="10.000"/>
        <stop lane="B0C0_1" startPos="300.000000000000000" endPos="300.000000000000000" duration="60.000" parking="1" actType="dropOff p0 (0)"/>
        <device id="vehroute_trip_0" state="1 0.000000000000000 0.000000000000000 5.100000000000000 1 A0B0 0 r0 taxi:prepare_dispatch 0 0"/>
        <device id="tripinfo_trip_0" state="A0B0_1 0 0 -5.1 2000 0 1 1000 -1 -1000 NONE -1 0 -1"/>
        <device id="taxi_trip_0" state="2 0 231.359 21000" customers="p0" reservations="0"/>
        <device id="person_trip_0" state="0 0 0"/>
    </vehicle>
    <vehicle id="trip_1" type="taxi" depart="0.000" route="r0" distance="0 0" speedFactor="0.969200000000000" line="taxi" state="2050 3000 0 5.100000000000000 0 0.000000000000000 4000 1 -25001 0" pos="5.100000000000000 0.100000000000000 0.000000000000000" speed="0.000000000000000 0.000000000000000" angle="90.000000000000000" posLat="0.000000000000000" waitingTime="100000 0" lcStateBase="0.000000000000000" lcState2="0 0 0 0 0">
        <stop lane="A0B0_1" endPos="5.100000000000000" triggered="person" parking="1" actType="idling" started="4.000"/>
        <device id="vehroute_trip_1" state="1 0.000000000000000 0.000000000000000 5.100000000000000 0"/>
        <device id="tripinfo_trip_1" state="A0B0_1 0 0 -5.1 0 0 0 1000 4000 -1000 NONE -1 0 -1"/>
        <device id="taxi_trip_1" state="0 0 0 0"/>
    </vehicle>
    <transportables type="person" state="1 2 0 1 0 0 0 0 0 0">
        <person id="p0" type="DEFAULT_PEDTYPE" depart="0.000" departPos="20.000000000000000" speedFactor="1.010400000000000" state="8 1 0 4467 -1 1 10000 trip_0 14.8992">
            <ride from="A0B0" to="B0C0" lines="taxi"/>
        </person>
        <person id="p5" type="DEFAULT_PEDTYPE" depart="50.000" departPos="20.000000000000000" speedFactor="1.082700000000000" state="8 0 -1">
            <ride from="A0B0" to="C0D0" lines="taxi"/>
        </person>
    </transportables>
    <vehicleTransfer id="trip_1" depart="-1" parking="A0B0_1"/>
    <lane id="A0B0_1">
        <vehicles value="trip_0"/>
    </lane>
    <routingEngine last="21000" index="3">
        <edge id="A0B0" speed="7.755080436720551" pastSpeed="6.945000000000000 7.952132425939199 14.038671941266303 6.945000000000000 6.945000000000000 6.945000000000000 6.945000000000000 6.945000000000000 6.945000000000000 6.945000000000000"/>
    </routingEngine>
</snapshot>
