<?xml version="1.0"?>

<!-- generated on 03/18/10 13:42:35 by SUMO sumo Version dev-SVN-r8460
<configuration>

    <input>
        <net-file value="three_split.net.xml"/>
        <additional-files value="input_routes.rou.xml,input_additional.add.xml"/>
    </input>

    <output>
        <vehroute-output value="vehroutes.xml"/>
    </output>

    <time>
        <begin value="0"/>
    </time>

    <report>
        <no-duration-log value="true"/>
        <no-step-log value="true"/>
    </report>

</configuration>
-->

<routes>
    <vehicle id="emitter_0.00_0" depart="0" arrival="181.00">
        <routeDistribution>
            <route replacedOnEdge="beg" replacedAtTime="0.00" probability="0" edges="beg middle end rend"/>
            <route edges="beg beg2left left left2end end rend"/>
        </routeDistribution>
    </vehicle>

    <vehicle id="emitter_20.00_1" depart="20" arrival="201.00">
        <routeDistribution>
            <route replacedOnEdge="beg" replacedAtTime="20.00" probability="0" edges="beg middle end rend"/>
            <route edges="beg beg2left left left2end end rend"/>
        </routeDistribution>
    </vehicle>

    <vehicle id="emitter_40.00_2" depart="40" arrival="221.00">
        <routeDistribution>
            <route replacedOnEdge="beg" replacedAtTime="40.00" probability="0" edges="beg middle end rend"/>
            <route edges="beg beg2left left left2end end rend"/>
        </routeDistribution>
    </vehicle>

    <vehicle id="emitter_60.00_3" depart="60" arrival="241.00">
        <routeDistribution>
            <route replacedOnEdge="beg" replacedAtTime="60.00" probability="0" edges="beg middle end rend"/>
            <route edges="beg beg2left left left2end end rend"/>
        </routeDistribution>
    </vehicle>

    <vehicle id="emitter_80.00_4" depart="80" arrival="261.00">
        <routeDistribution>
            <route replacedOnEdge="beg" replacedAtTime="80.00" probability="0" edges="beg middle end rend"/>
            <route edges="beg beg2left left left2end end rend"/>
        </routeDistribution>
    </vehicle>

    <vehicle id="emitter_100.00_5" depart="100" arrival="281.00">
        <routeDistribution>
            <route replacedOnEdge="beg" replacedAtTime="100.00" probability="0" edges="beg middle end rend"/>
            <route edges="beg beg2left left left2end end rend"/>
        </routeDistribution>
    </vehicle>

    <vehicle id="emitter_120.00_6" depart="120" arrival="301.00">
        <routeDistribution>
            <route replacedOnEdge="beg" replacedAtTime="120.00" probability="0" edges="beg middle end rend"/>
            <route edges="beg beg2left left left2end end rend"/>
        </routeDistribution>
    </vehicle>

    <vehicle id="emitter_140.00_7" depart="140" arrival="321.00">
        <routeDistribution>
            <route replacedOnEdge="beg" replacedAtTime="140.00" probability="0" edges="beg middle end rend"/>
            <route edges="beg beg2left left left2end end rend"/>
        </routeDistribution>
    </vehicle>

    <vehicle id="emitter_160.00_8" depart="160" arrival="341.00">
        <routeDistribution>
            <route replacedOnEdge="beg" replacedAtTime="160.00" probability="0" edges="beg middle end rend"/>
            <route edges="beg beg2left left left2end end rend"/>
        </routeDistribution>
    </vehicle>

    <vehicle id="emitter_180.00_9" depart="180" arrival="361.00">
        <routeDistribution>
            <route replacedOnEdge="beg" replacedAtTime="180.00" probability="0" edges="beg middle end rend"/>
            <route edges="beg beg2left left left2end end rend"/>
        </routeDistribution>
    </vehicle>

</routes>
