<?xml version="1.0" encoding="UTF-8"?>

<!-- generated on 2026-04-23T10:51:13.570609+01:00 by Eclipse SUMO sumo v1_26_0+1336-682400df945
This data file and the accompanying materials
are made available under the terms of the Eclipse Public License v2.0
which accompanies this distribution, and is available at
http://www.eclipse.org/legal/epl-v20.html
This file may also be made available under the following Secondary
Licenses when the conditions for such availability set forth in the Eclipse
Public License 2.0 are satisfied: GNU General Public License, version 2
or later which is available at
https://www.gnu.org/licenses/old-licenses/gpl-2.0-standalone.html
SPDX-License-Identifier: EPL-2.0 OR GPL-2.0-or-later
<sumoConfiguration xmlns:xsi="http://www.w3.org/2001/XMLSchema-instance" xsi:noNamespaceSchemaLocation="http://sumo.dlr.de/xsd/sumoConfiguration.xsd">

    <input>
        <net-file value="net.net.xml"/>
        <route-files value="input_routes.rou.xml"/>
        <additional-files value="input_additional.add.xml"/>
    </input>

    <output>
        <write-license value="true"/>
        <vehroute-output value="vehroutes.xml"/>
        <vehroute-output.exit-times value="true"/>
        <vehroute-output.route-length value="true"/>
        <vehroute-output.write-unfinished value="true"/>
        <vehroute-output.skip-ptlines value="true"/>
    </output>

    <time>
        <end value="700"/>
    </time>

    <processing>
        <default.departspeed value="0"/>
        <default.departlane value="first"/>
        <default.speeddev value="0"/>
    </processing>

    <report>
        <xml-validation value="never"/>
        <duration-log.disable value="true"/>
        <no-step-log value="true"/>
    </report>

</sumoConfiguration>
-->

<routes xmlns:xsi="http://www.w3.org/2001/XMLSchema-instance" xsi:noNamespaceSchemaLocation="http://sumo.dlr.de/xsd/routes_file.xsd">
    <person id="p0" depart="0.00" arrival="658.00">
        <walk edges="beg" busStop="beg_0" routeLength="250.00" exitTimes="201.00" started="0.00" ended="201.00"/> <!-- blubber -->
        <ride from="beg" to="end" busStop="end_0" intended="bus.1" depart="310.00" routeLength="2512.32" vehicle="bus.1" started="331.00" ended="458.00"/>
        <walk edges="end" routeLength="249.96" exitTimes="658.00" started="458.00" ended="658.00"/>
    </person>

    <person id="p1" depart="0.00">
        <walk edges="end middle beg" routeLength="872.48" exitTimes="1.00 -1 -1" started="0.00" ended="-1"/>
    </person>

</routes>
