<?xml version="1.0"?>

<!-- generated on 02/15/12 11:59:05 by SUMO sumo Version dev-SVN-r11548
<?xml version="1.0" encoding="UTF-8"?>

<configuration xmlns:xsi="http://www.w3.org/2001/XMLSchema-instance" xsi:noNamespaceSchemaLocation="http://sumo.sf.net/xsd/sumoConfiguration.xsd">

    <input>
        <net-file value="net.net.xml"/>
        <route-files value="input_routes.rou.xml"/>
        <additional-files value="input_additional.add.xml"/>
    </input>

    <output>
        <vehroute-output value="vehroutes.xml"/>
    </output>

    <time>
        <begin value="0"/>
        <end value="10000"/>
    </time>

    <report>
        <no-duration-log value="true"/>
        <no-step-log value="true"/>
    </report>

    <mesoscopic>
        <mesosim value="true"/>
    </mesoscopic>

</configuration>
-->

<routes>
    <vehicle id="0.201" type="Eissfeldt" depart="381.00" arrival="702.00">
        <route edges="1/1to2/1 2/1to3/1 3/1to4/1 4/1to5/1 5/1to6/1 6/1to7/1"/>
    </vehicle>

    <vehicle id="0.202" type="Eissfeldt" depart="383.00" arrival="704.00">
        <route edges="1/1to2/1 2/1to3/1 3/1to4/1 4/1to5/1 5/1to6/1 6/1to7/1"/>
    </vehicle>

    <vehicle id="0.203" type="Eissfeldt" depart="385.00" arrival="706.00">
        <route edges="1/1to2/1 2/1to3/1 3/1to4/1 4/1to5/1 5/1to6/1 6/1to7/1"/>
    </vehicle>

    <vehicle id="0.204" type="Eissfeldt" depart="387.00" arrival="708.00">
        <route edges="1/1to2/1 2/1to3/1 3/1to4/1 4/1to5/1 5/1to6/1 6/1to7/1"/>
    </vehicle>

    <vehicle id="0.205" type="Eissfeldt" depart="389.00" arrival="710.00">
        <route edges="1/1to2/1 2/1to3/1 3/1to4/1 4/1to5/1 5/1to6/1 6/1to7/1"/>
    </vehicle>

    <vehicle id="0.206" type="Eissfeldt" depart="391.00" arrival="712.00">
        <route edges="1/1to2/1 2/1to3/1 3/1to4/1 4/1to5/1 5/1to6/1 6/1to7/1"/>
    </vehicle>

    <vehicle id="0.207" type="Eissfeldt" depart="393.00" arrival="714.00">
        <route edges="1/1to2/1 2/1to3/1 3/1to4/1 4/1to5/1 5/1to6/1 6/1to7/1"/>
    </vehicle>

    <vehicle id="0.208" type="Eissfeldt" depart="395.00" arrival="716.00">
        <route edges="1/1to2/1 2/1to3/1 3/1to4/1 4/1to5/1 5/1to6/1 6/1to7/1"/>
    </vehicle>

    <vehicle id="0.209" type="Eissfeldt" depart="397.00" arrival="718.00">
        <route edges="1/1to2/1 2/1to3/1 3/1to4/1 4/1to5/1 5/1to6/1 6/1to7/1"/>
    </vehicle>

    <vehicle id="0.210" type="Eissfeldt" depart="399.00" arrival="720.00">
        <route edges="1/1to2/1 2/1to3/1 3/1to4/1 4/1to5/1 5/1to6/1 6/1to7/1"/>
    </vehicle>

    <vehicle id="0.211" type="Eissfeldt" depart="401.00" arrival="722.00">
        <route edges="1/1to2/1 2/1to3/1 3/1to4/1 4/1to5/1 5/1to6/1 6/1to7/1"/>
    </vehicle>

    <vehicle id="0.212" type="Eissfeldt" depart="403.00" arrival="724.00">
        <route edges="1/1to2/1 2/1to3/1 3/1to4/1 4/1to5/1 5/1to6/1 6/1to7/1"/>
    </vehicle>

    <vehicle id="0.76" type="Eissfeldt" depart="131.00" arrival="724.00">
        <routeDistribution>
            <route replacedOnEdge="5/1to6/1" replacedAtTime="352.00" probability="0" edges="1/1to2/1 2/1to3/1 3/1to4/1 4/1to5/1 5/1to6/1 6/1to7/1"/>
            <route edges="1/1to2/1 2/1to3/1 3/1to4/1 4/1to5/1 5/1to6/1 6/1to7/1 7/1to8/1 8/1to9/1 9/1to10/1 10/1to1/1 1/1to2/1"/>
        </routeDistribution>
    </vehicle>

    <vehicle id="0.213" type="Eissfeldt" depart="405.00" arrival="726.00">
        <route edges="1/1to2/1 2/1to3/1 3/1to4/1 4/1to5/1 5/1to6/1 6/1to7/1"/>
    </vehicle>

    <vehicle id="0.77" type="Eissfeldt" depart="133.00" arrival="726.00">
        <routeDistribution>
            <route replacedOnEdge="5/1to6/1" replacedAtTime="354.00" probability="0" edges="1/1to2/1 2/1to3/1 3/1to4/1 4/1to5/1 5/1to6/1 6/1to7/1"/>
            <route edges="1/1to2/1 2/1to3/1 3/1to4/1 4/1to5/1 5/1to6/1 6/1to7/1 7/1to8/1 8/1to9/1 9/1to10/1 10/1to1/1 1/1to2/1"/>
        </routeDistribution>
    </vehicle>

    <vehicle id="0.214" type="Eissfeldt" depart="407.00" arrival="728.00">
        <route edges="1/1to2/1 2/1to3/1 3/1to4/1 4/1to5/1 5/1to6/1 6/1to7/1"/>
    </vehicle>

    <vehicle id="0.78" type="Eissfeldt" depart="135.00" arrival="728.00">
        <routeDistribution>
            <route replacedOnEdge="5/1to6/1" replacedAtTime="356.00" probability="0" edges="1/1to2/1 2/1to3/1 3/1to4/1 4/1to5/1 5/1to6/1 6/1to7/1"/>
            <route edges="1/1to2/1 2/1to3/1 3/1to4/1 4/1to5/1 5/1to6/1 6/1to7/1 7/1to8/1 8/1to9/1 9/1to10/1 10/1to1/1 1/1to2/1"/>
        </routeDistribution>
    </vehicle>

    <vehicle id="0.215" type="Eissfeldt" depart="409.00" arrival="730.00">
        <route edges="1/1to2/1 2/1to3/1 3/1to4/1 4/1to5/1 5/1to6/1 6/1to7/1"/>
    </vehicle>

    <vehicle id="0.79" type="Eissfeldt" depart="137.00" arrival="730.00">
        <routeDistribution>
            <route replacedOnEdge="5/1to6/1" replacedAtTime="358.00" probability="0" edges="1/1to2/1 2/1to3/1 3/1to4/1 4/1to5/1 5/1to6/1 6/1to7/1"/>
            <route edges="1/1to2/1 2/1to3/1 3/1to4/1 4/1to5/1 5/1to6/1 6/1to7/1 7/1to8/1 8/1to9/1 9/1to10/1 10/1to1/1 1/1to2/1"/>
        </routeDistribution>
    </vehicle>

    <vehicle id="0.216" type="Eissfeldt" depart="411.00" arrival="732.00">
        <route edges="1/1to2/1 2/1to3/1 3/1to4/1 4/1to5/1 5/1to6/1 6/1to7/1"/>
    </vehicle>

    <vehicle id="0.80" type="Eissfeldt" depart="139.00" arrival="732.00">
        <routeDistribution>
            <route replacedOnEdge="5/1to6/1" replacedAtTime="360.00" probability="0" edges="1/1to2/1 2/1to3/1 3/1to4/1 4/1to5/1 5/1to6/1 6/1to7/1"/>
            <route edges="1/1to2/1 2/1to3/1 3/1to4/1 4/1to5/1 5/1to6/1 6/1to7/1 7/1to8/1 8/1to9/1 9/1to10/1 10/1to1/1 1/1to2/1"/>
        </routeDistribution>
    </vehicle>

    <vehicle id="0.217" type="Eissfeldt" depart="413.00" arrival="734.00">
        <route edges="1/1to2/1 2/1to3/1 3/1to4/1 4/1to5/1 5/1to6/1 6/1to7/1"/>
    </vehicle>

    <vehicle id="0.81" type="Eissfeldt" depart="141.00" arrival="734.00">
        <routeDistribution>
            <route replacedOnEdge="5/1to6/1" replacedAtTime="362.00" probability="0" edges="1/1to2/1 2/1to3/1 3/1to4/1 4/1to5/1 5/1to6/1 6/1to7/1"/>
            <route edges="1/1to2/1 2/1to3/1 3/1to4/1 4/1to5/1 5/1to6/1 6/1to7/1 7/1to8/1 8/1to9/1 9/1to10/1 10/1to1/1 1/1to2/1"/>
        </routeDistribution>
    </vehicle>

    <vehicle id="0.218" type="Eissfeldt" depart="415.00" arrival="736.00">
        <route edges="1/1to2/1 2/1to3/1 3/1to4/1 4/1to5/1 5/1to6/1 6/1to7/1"/>
    </vehicle>

    <vehicle id="0.82" type="Eissfeldt" depart="143.00" arrival="736.00">
        <routeDistribution>
            <route replacedOnEdge="5/1to6/1" replacedAtTime="364.00" probability="0" edges="1/1to2/1 2/1to3/1 3/1to4/1 4/1to5/1 5/1to6/1 6/1to7/1"/>
            <route edges="1/1to2/1 2/1to3/1 3/1to4/1 4/1to5/1 5/1to6/1 6/1to7/1 7/1to8/1 8/1to9/1 9/1to10/1 10/1to1/1 1/1to2/1"/>
        </routeDistribution>
    </vehicle>

    <vehicle id="0.219" type="Eissfeldt" depart="417.00" arrival="738.00">
        <route edges="1/1to2/1 2/1to3/1 3/1to4/1 4/1to5/1 5/1to6/1 6/1to7/1"/>
    </vehicle>

    <vehicle id="0.83" type="Eissfeldt" depart="145.00" arrival="738.00">
        <routeDistribution>
            <route replacedOnEdge="5/1to6/1" replacedAtTime="366.00" probability="0" edges="1/1to2/1 2/1to3/1 3/1to4/1 4/1to5/1 5/1to6/1 6/1to7/1"/>
            <route edges="1/1to2/1 2/1to3/1 3/1to4/1 4/1to5/1 5/1to6/1 6/1to7/1 7/1to8/1 8/1to9/1 9/1to10/1 10/1to1/1 1/1to2/1"/>
        </routeDistribution>
    </vehicle>

    <vehicle id="0.220" type="Eissfeldt" depart="419.00" arrival="740.00">
        <route edges="1/1to2/1 2/1to3/1 3/1to4/1 4/1to5/1 5/1to6/1 6/1to7/1"/>
    </vehicle>

    <vehicle id="0.84" type="Eissfeldt" depart="147.00" arrival="740.00">
        <routeDistribution>
            <route replacedOnEdge="5/1to6/1" replacedAtTime="368.00" probability="0" edges="1/1to2/1 2/1to3/1 3/1to4/1 4/1to5/1 5/1to6/1 6/1to7/1"/>
            <route edges="1/1to2/1 2/1to3/1 3/1to4/1 4/1to5/1 5/1to6/1 6/1to7/1 7/1to8/1 8/1to9/1 9/1to10/1 10/1to1/1 1/1to2/1"/>
        </routeDistribution>
    </vehicle>

    <vehicle id="0.221" type="Eissfeldt" depart="421.00" arrival="742.00">
        <route edges="1/1to2/1 2/1to3/1 3/1to4/1 4/1to5/1 5/1to6/1 6/1to7/1"/>
    </vehicle>

    <vehicle id="0.85" type="Eissfeldt" depart="149.00" arrival="742.00">
        <routeDistribution>
            <route replacedOnEdge="5/1to6/1" replacedAtTime="370.00" probability="0" edges="1/1to2/1 2/1to3/1 3/1to4/1 4/1to5/1 5/1to6/1 6/1to7/1"/>
            <route edges="1/1to2/1 2/1to3/1 3/1to4/1 4/1to5/1 5/1to6/1 6/1to7/1 7/1to8/1 8/1to9/1 9/1to10/1 10/1to1/1 1/1to2/1"/>
        </routeDistribution>
    </vehicle>

    <vehicle id="0.222" type="Eissfeldt" depart="423.00" arrival="744.00">
        <route edges="1/1to2/1 2/1to3/1 3/1to4/1 4/1to5/1 5/1to6/1 6/1to7/1"/>
    </vehicle>

    <vehicle id="0.86" type="Eissfeldt" depart="151.00" arrival="744.00">
        <routeDistribution>
            <route replacedOnEdge="5/1to6/1" replacedAtTime="372.00" probability="0" edges="1/1to2/1 2/1to3/1 3/1to4/1 4/1to5/1 5/1to6/1 6/1to7/1"/>
            <route edges="1/1to2/1 2/1to3/1 3/1to4/1 4/1to5/1 5/1to6/1 6/1to7/1 7/1to8/1 8/1to9/1 9/1to10/1 10/1to1/1 1/1to2/1"/>
        </routeDistribution>
    </vehicle>

    <vehicle id="0.223" type="Eissfeldt" depart="425.00" arrival="746.00">
        <route edges="1/1to2/1 2/1to3/1 3/1to4/1 4/1to5/1 5/1to6/1 6/1to7/1"/>
    </vehicle>

    <vehicle id="0.87" type="Eissfeldt" depart="153.00" arrival="746.00">
        <routeDistribution>
            <route replacedOnEdge="5/1to6/1" replacedAtTime="374.00" probability="0" edges="1/1to2/1 2/1to3/1 3/1to4/1 4/1to5/1 5/1to6/1 6/1to7/1"/>
            <route edges="1/1to2/1 2/1to3/1 3/1to4/1 4/1to5/1 5/1to6/1 6/1to7/1 7/1to8/1 8/1to9/1 9/1to10/1 10/1to1/1 1/1to2/1"/>
        </routeDistribution>
    </vehicle>

    <vehicle id="0.224" type="Eissfeldt" depart="427.00" arrival="748.00">
        <route edges="1/1to2/1 2/1to3/1 3/1to4/1 4/1to5/1 5/1to6/1 6/1to7/1"/>
    </vehicle>

    <vehicle id="0.88" type="Eissfeldt" depart="155.00" arrival="748.00">
        <routeDistribution>
            <route replacedOnEdge="5/1to6/1" replacedAtTime="376.00" probability="0" edges="1/1to2/1 2/1to3/1 3/1to4/1 4/1to5/1 5/1to6/1 6/1to7/1"/>
            <route edges="1/1to2/1 2/1to3/1 3/1to4/1 4/1to5/1 5/1to6/1 6/1to7/1 7/1to8/1 8/1to9/1 9/1to10/1 10/1to1/1 1/1to2/1"/>
        </routeDistribution>
    </vehicle>

    <vehicle id="0.225" type="Eissfeldt" depart="429.00" arrival="750.00">
        <route edges="1/1to2/1 2/1to3/1 3/1to4/1 4/1to5/1 5/1to6/1 6/1to7/1"/>
    </vehicle>

    <vehicle id="0.89" type="Eissfeldt" depart="157.00" arrival="750.00">
        <routeDistribution>
            <route replacedOnEdge="5/1to6/1" replacedAtTime="378.00" probability="0" edges="1/1to2/1 2/1to3/1 3/1to4/1 4/1to5/1 5/1to6/1 6/1to7/1"/>
            <route edges="1/1to2/1 2/1to3/1 3/1to4/1 4/1to5/1 5/1to6/1 6/1to7/1 7/1to8/1 8/1to9/1 9/1to10/1 10/1to1/1 1/1to2/1"/>
        </routeDistribution>
    </vehicle>

    <vehicle id="0.226" type="Eissfeldt" depart="431.00" arrival="752.00">
        <route edges="1/1to2/1 2/1to3/1 3/1to4/1 4/1to5/1 5/1to6/1 6/1to7/1"/>
    </vehicle>

    <vehicle id="0.90" type="Eissfeldt" depart="159.00" arrival="752.00">
        <routeDistribution>
            <route replacedOnEdge="5/1to6/1" replacedAtTime="380.00" probability="0" edges="1/1to2/1 2/1to3/1 3/1to4/1 4/1to5/1 5/1to6/1 6/1to7/1"/>
            <route edges="1/1to2/1 2/1to3/1 3/1to4/1 4/1to5/1 5/1to6/1 6/1to7/1 7/1to8/1 8/1to9/1 9/1to10/1 10/1to1/1 1/1to2/1"/>
        </routeDistribution>
    </vehicle>

    <vehicle id="0.227" type="Eissfeldt" depart="433.00" arrival="754.00">
        <route edges="1/1to2/1 2/1to3/1 3/1to4/1 4/1to5/1 5/1to6/1 6/1to7/1"/>
    </vehicle>

    <vehicle id="0.91" type="Eissfeldt" depart="161.00" arrival="754.00">
        <routeDistribution>
            <route replacedOnEdge="5/1to6/1" replacedAtTime="382.00" probability="0" edges="1/1to2/1 2/1to3/1 3/1to4/1 4/1to5/1 5/1to6/1 6/1to7/1"/>
            <route edges="1/1to2/1 2/1to3/1 3/1to4/1 4/1to5/1 5/1to6/1 6/1to7/1 7/1to8/1 8/1to9/1 9/1to10/1 10/1to1/1 1/1to2/1"/>
        </routeDistribution>
    </vehicle>

    <vehicle id="0.228" type="Eissfeldt" depart="435.00" arrival="756.00">
        <route edges="1/1to2/1 2/1to3/1 3/1to4/1 4/1to5/1 5/1to6/1 6/1to7/1"/>
    </vehicle>

    <vehicle id="0.92" type="Eissfeldt" depart="163.00" arrival="756.00">
        <routeDistribution>
            <route replacedOnEdge="5/1to6/1" replacedAtTime="384.00" probability="0" edges="1/1to2/1 2/1to3/1 3/1to4/1 4/1to5/1 5/1to6/1 6/1to7/1"/>
            <route edges="1/1to2/1 2/1to3/1 3/1to4/1 4/1to5/1 5/1to6/1 6/1to7/1 7/1to8/1 8/1to9/1 9/1to10/1 10/1to1/1 1/1to2/1"/>
        </routeDistribution>
    </vehicle>

    <vehicle id="0.229" type="Eissfeldt" depart="437.00" arrival="758.00">
        <route edges="1/1to2/1 2/1to3/1 3/1to4/1 4/1to5/1 5/1to6/1 6/1to7/1"/>
    </vehicle>

    <vehicle id="0.93" type="Eissfeldt" depart="165.00" arrival="758.00">
        <routeDistribution>
            <route replacedOnEdge="5/1to6/1" replacedAtTime="386.00" probability="0" edges="1/1to2/1 2/1to3/1 3/1to4/1 4/1to5/1 5/1to6/1 6/1to7/1"/>
            <route edges="1/1to2/1 2/1to3/1 3/1to4/1 4/1to5/1 5/1to6/1 6/1to7/1 7/1to8/1 8/1to9/1 9/1to10/1 10/1to1/1 1/1to2/1"/>
        </routeDistribution>
    </vehicle>

    <vehicle id="0.230" type="Eissfeldt" depart="439.00" arrival="760.00">
        <route edges="1/1to2/1 2/1to3/1 3/1to4/1 4/1to5/1 5/1to6/1 6/1to7/1"/>
    </vehicle>

    <vehicle id="0.94" type="Eissfeldt" depart="167.00" arrival="760.00">
        <routeDistribution>
            <route replacedOnEdge="5/1to6/1" replacedAtTime="388.00" probability="0" edges="1/1to2/1 2/1to3/1 3/1to4/1 4/1to5/1 5/1to6/1 6/1to7/1"/>
            <route edges="1/1to2/1 2/1to3/1 3/1to4/1 4/1to5/1 5/1to6/1 6/1to7/1 7/1to8/1 8/1to9/1 9/1to10/1 10/1to1/1 1/1to2/1"/>
        </routeDistribution>
    </vehicle>

    <vehicle id="0.231" type="Eissfeldt" depart="441.00" arrival="762.00">
        <route edges="1/1to2/1 2/1to3/1 3/1to4/1 4/1to5/1 5/1to6/1 6/1to7/1"/>
    </vehicle>

    <vehicle id="0.95" type="Eissfeldt" depart="169.00" arrival="762.00">
        <routeDistribution>
            <route replacedOnEdge="5/1to6/1" replacedAtTime="390.00" probability="0" edges="1/1to2/1 2/1to3/1 3/1to4/1 4/1to5/1 5/1to6/1 6/1to7/1"/>
            <route edges="1/1to2/1 2/1to3/1 3/1to4/1 4/1to5/1 5/1to6/1 6/1to7/1 7/1to8/1 8/1to9/1 9/1to10/1 10/1to1/1 1/1to2/1"/>
        </routeDistribution>
    </vehicle>

    <vehicle id="0.232" type="Eissfeldt" depart="443.00" arrival="764.00">
        <route edges="1/1to2/1 2/1to3/1 3/1to4/1 4/1to5/1 5/1to6/1 6/1to7/1"/>
    </vehicle>

    <vehicle id="0.96" type="Eissfeldt" depart="171.00" arrival="764.00">
        <routeDistribution>
            <route replacedOnEdge="5/1to6/1" replacedAtTime="392.00" probability="0" edges="1/1to2/1 2/1to3/1 3/1to4/1 4/1to5/1 5/1to6/1 6/1to7/1"/>
            <route edges="1/1to2/1 2/1to3/1 3/1to4/1 4/1to5/1 5/1to6/1 6/1to7/1 7/1to8/1 8/1to9/1 9/1to10/1 10/1to1/1 1/1to2/1"/>
        </routeDistribution>
    </vehicle>

    <vehicle id="0.233" type="Eissfeldt" depart="445.00" arrival="766.00">
        <route edges="1/1to2/1 2/1to3/1 3/1to4/1 4/1to5/1 5/1to6/1 6/1to7/1"/>
    </vehicle>

    <vehicle id="0.97" type="Eissfeldt" depart="173.00" arrival="766.00">
        <routeDistribution>
            <route replacedOnEdge="5/1to6/1" replacedAtTime="394.00" probability="0" edges="1/1to2/1 2/1to3/1 3/1to4/1 4/1to5/1 5/1to6/1 6/1to7/1"/>
            <route edges="1/1to2/1 2/1to3/1 3/1to4/1 4/1to5/1 5/1to6/1 6/1to7/1 7/1to8/1 8/1to9/1 9/1to10/1 10/1to1/1 1/1to2/1"/>
        </routeDistribution>
    </vehicle>

    <vehicle id="0.234" type="Eissfeldt" depart="447.00" arrival="768.00">
        <route edges="1/1to2/1 2/1to3/1 3/1to4/1 4/1to5/1 5/1to6/1 6/1to7/1"/>
    </vehicle>

    <vehicle id="0.98" type="Eissfeldt" depart="175.00" arrival="768.00">
        <routeDistribution>
            <route replacedOnEdge="5/1to6/1" replacedAtTime="396.00" probability="0" edges="1/1to2/1 2/1to3/1 3/1to4/1 4/1to5/1 5/1to6/1 6/1to7/1"/>
            <route edges="1/1to2/1 2/1to3/1 3/1to4/1 4/1to5/1 5/1to6/1 6/1to7/1 7/1to8/1 8/1to9/1 9/1to10/1 10/1to1/1 1/1to2/1"/>
        </routeDistribution>
    </vehicle>

    <vehicle id="0.235" type="Eissfeldt" depart="449.00" arrival="770.00">
        <route edges="1/1to2/1 2/1to3/1 3/1to4/1 4/1to5/1 5/1to6/1 6/1to7/1"/>
    </vehicle>

    <vehicle id="0.99" type="Eissfeldt" depart="177.00" arrival="770.00">
        <routeDistribution>
            <route replacedOnEdge="5/1to6/1" replacedAtTime="398.00" probability="0" edges="1/1to2/1 2/1to3/1 3/1to4/1 4/1to5/1 5/1to6/1 6/1to7/1"/>
            <route edges="1/1to2/1 2/1to3/1 3/1to4/1 4/1to5/1 5/1to6/1 6/1to7/1 7/1to8/1 8/1to9/1 9/1to10/1 10/1to1/1 1/1to2/1"/>
        </routeDistribution>
    </vehicle>

    <vehicle id="0.236" type="Eissfeldt" depart="451.00" arrival="772.00">
        <route edges="1/1to2/1 2/1to3/1 3/1to4/1 4/1to5/1 5/1to6/1 6/1to7/1"/>
    </vehicle>

    <vehicle id="0.100" type="Eissfeldt" depart="179.00" arrival="772.00">
        <routeDistribution>
            <route replacedOnEdge="5/1to6/1" replacedAtTime="400.00" probability="0" edges="1/1to2/1 2/1to3/1 3/1to4/1 4/1to5/1 5/1to6/1 6/1to7/1"/>
            <route edges="1/1to2/1 2/1to3/1 3/1to4/1 4/1to5/1 5/1to6/1 6/1to7/1 7/1to8/1 8/1to9/1 9/1to10/1 10/1to1/1 1/1to2/1"/>
        </routeDistribution>
    </vehicle>

    <vehicle id="0.237" type="Eissfeldt" depart="453.00" arrival="774.00">
        <route edges="1/1to2/1 2/1to3/1 3/1to4/1 4/1to5/1 5/1to6/1 6/1to7/1"/>
    </vehicle>

    <vehicle id="0.101" type="Eissfeldt" depart="181.00" arrival="774.00">
        <routeDistribution>
            <route replacedOnEdge="5/1to6/1" replacedAtTime="402.00" probability="0" edges="1/1to2/1 2/1to3/1 3/1to4/1 4/1to5/1 5/1to6/1 6/1to7/1"/>
            <route edges="1/1to2/1 2/1to3/1 3/1to4/1 4/1to5/1 5/1to6/1 6/1to7/1 7/1to8/1 8/1to9/1 9/1to10/1 10/1to1/1 1/1to2/1"/>
        </routeDistribution>
    </vehicle>

    <vehicle id="0.238" type="Eissfeldt" depart="455.00" arrival="776.00">
        <route edges="1/1to2/1 2/1to3/1 3/1to4/1 4/1to5/1 5/1to6/1 6/1to7/1"/>
    </vehicle>

    <vehicle id="0.102" type="Eissfeldt" depart="183.00" arrival="776.00">
        <routeDistribution>
            <route replacedOnEdge="5/1to6/1" replacedAtTime="404.00" probability="0" edges="1/1to2/1 2/1to3/1 3/1to4/1 4/1to5/1 5/1to6/1 6/1to7/1"/>
            <route edges="1/1to2/1 2/1to3/1 3/1to4/1 4/1to5/1 5/1to6/1 6/1to7/1 7/1to8/1 8/1to9/1 9/1to10/1 10/1to1/1 1/1to2/1"/>
        </routeDistribution>
    </vehicle>

    <vehicle id="0.239" type="Eissfeldt" depart="457.00" arrival="778.00">
        <route edges="1/1to2/1 2/1to3/1 3/1to4/1 4/1to5/1 5/1to6/1 6/1to7/1"/>
    </vehicle>

    <vehicle id="0.103" type="Eissfeldt" depart="185.00" arrival="778.00">
        <routeDistribution>
            <route replacedOnEdge="5/1to6/1" replacedAtTime="406.00" probability="0" edges="1/1to2/1 2/1to3/1 3/1to4/1 4/1to5/1 5/1to6/1 6/1to7/1"/>
            <route edges="1/1to2/1 2/1to3/1 3/1to4/1 4/1to5/1 5/1to6/1 6/1to7/1 7/1to8/1 8/1to9/1 9/1to10/1 10/1to1/1 1/1to2/1"/>
        </routeDistribution>
    </vehicle>

    <vehicle id="0.240" type="Eissfeldt" depart="459.00" arrival="780.00">
        <route edges="1/1to2/1 2/1to3/1 3/1to4/1 4/1to5/1 5/1to6/1 6/1to7/1"/>
    </vehicle>

    <vehicle id="0.104" type="Eissfeldt" depart="187.00" arrival="780.00">
        <routeDistribution>
            <route replacedOnEdge="5/1to6/1" replacedAtTime="408.00" probability="0" edges="1/1to2/1 2/1to3/1 3/1to4/1 4/1to5/1 5/1to6/1 6/1to7/1"/>
            <route edges="1/1to2/1 2/1to3/1 3/1to4/1 4/1to5/1 5/1to6/1 6/1to7/1 7/1to8/1 8/1to9/1 9/1to10/1 10/1to1/1 1/1to2/1"/>
        </routeDistribution>
    </vehicle>

    <vehicle id="0.241" type="Eissfeldt" depart="461.00" arrival="782.00">
        <route edges="1/1to2/1 2/1to3/1 3/1to4/1 4/1to5/1 5/1to6/1 6/1to7/1"/>
    </vehicle>

    <vehicle id="0.105" type="Eissfeldt" depart="189.00" arrival="782.00">
        <routeDistribution>
            <route replacedOnEdge="5/1to6/1" replacedAtTime="410.00" probability="0" edges="1/1to2/1 2/1to3/1 3/1to4/1 4/1to5/1 5/1to6/1 6/1to7/1"/>
            <route edges="1/1to2/1 2/1to3/1 3/1to4/1 4/1to5/1 5/1to6/1 6/1to7/1 7/1to8/1 8/1to9/1 9/1to10/1 10/1to1/1 1/1to2/1"/>
        </routeDistribution>
    </vehicle>

    <vehicle id="0.242" type="Eissfeldt" depart="463.00" arrival="784.00">
        <route edges="1/1to2/1 2/1to3/1 3/1to4/1 4/1to5/1 5/1to6/1 6/1to7/1"/>
    </vehicle>

    <vehicle id="0.106" type="Eissfeldt" depart="191.00" arrival="784.00">
        <routeDistribution>
            <route replacedOnEdge="5/1to6/1" replacedAtTime="412.00" probability="0" edges="1/1to2/1 2/1to3/1 3/1to4/1 4/1to5/1 5/1to6/1 6/1to7/1"/>
            <route edges="1/1to2/1 2/1to3/1 3/1to4/1 4/1to5/1 5/1to6/1 6/1to7/1 7/1to8/1 8/1to9/1 9/1to10/1 10/1to1/1 1/1to2/1"/>
        </routeDistribution>
    </vehicle>

    <vehicle id="0.243" type="Eissfeldt" depart="465.00" arrival="786.00">
        <route edges="1/1to2/1 2/1to3/1 3/1to4/1 4/1to5/1 5/1to6/1 6/1to7/1"/>
    </vehicle>

    <vehicle id="0.107" type="Eissfeldt" depart="193.00" arrival="786.00">
        <routeDistribution>
            <route replacedOnEdge="5/1to6/1" replacedAtTime="414.00" probability="0" edges="1/1to2/1 2/1to3/1 3/1to4/1 4/1to5/1 5/1to6/1 6/1to7/1"/>
            <route edges="1/1to2/1 2/1to3/1 3/1to4/1 4/1to5/1 5/1to6/1 6/1to7/1 7/1to8/1 8/1to9/1 9/1to10/1 10/1to1/1 1/1to2/1"/>
        </routeDistribution>
    </vehicle>

    <vehicle id="0.244" type="Eissfeldt" depart="467.00" arrival="788.00">
        <route edges="1/1to2/1 2/1to3/1 3/1to4/1 4/1to5/1 5/1to6/1 6/1to7/1"/>
    </vehicle>

    <vehicle id="0.108" type="Eissfeldt" depart="195.00" arrival="788.00">
        <routeDistribution>
            <route replacedOnEdge="5/1to6/1" replacedAtTime="416.00" probability="0" edges="1/1to2/1 2/1to3/1 3/1to4/1 4/1to5/1 5/1to6/1 6/1to7/1"/>
            <route edges="1/1to2/1 2/1to3/1 3/1to4/1 4/1to5/1 5/1to6/1 6/1to7/1 7/1to8/1 8/1to9/1 9/1to10/1 10/1to1/1 1/1to2/1"/>
        </routeDistribution>
    </vehicle>

    <vehicle id="0.245" type="Eissfeldt" depart="469.00" arrival="790.00">
        <route edges="1/1to2/1 2/1to3/1 3/1to4/1 4/1to5/1 5/1to6/1 6/1to7/1"/>
    </vehicle>

    <vehicle id="0.109" type="Eissfeldt" depart="197.00" arrival="790.00">
        <routeDistribution>
            <route replacedOnEdge="5/1to6/1" replacedAtTime="418.00" probability="0" edges="1/1to2/1 2/1to3/1 3/1to4/1 4/1to5/1 5/1to6/1 6/1to7/1"/>
            <route edges="1/1to2/1 2/1to3/1 3/1to4/1 4/1to5/1 5/1to6/1 6/1to7/1 7/1to8/1 8/1to9/1 9/1to10/1 10/1to1/1 1/1to2/1"/>
        </routeDistribution>
    </vehicle>

    <vehicle id="0.246" type="Eissfeldt" depart="471.00" arrival="792.00">
        <route edges="1/1to2/1 2/1to3/1 3/1to4/1 4/1to5/1 5/1to6/1 6/1to7/1"/>
    </vehicle>

    <vehicle id="0.110" type="Eissfeldt" depart="199.00" arrival="792.00">
        <routeDistribution>
            <route replacedOnEdge="5/1to6/1" replacedAtTime="420.00" probability="0" edges="1/1to2/1 2/1to3/1 3/1to4/1 4/1to5/1 5/1to6/1 6/1to7/1"/>
            <route edges="1/1to2/1 2/1to3/1 3/1to4/1 4/1to5/1 5/1to6/1 6/1to7/1 7/1to8/1 8/1to9/1 9/1to10/1 10/1to1/1 1/1to2/1"/>
        </routeDistribution>
    </vehicle>

    <vehicle id="0.247" type="Eissfeldt" depart="473.00" arrival="794.00">
        <route edges="1/1to2/1 2/1to3/1 3/1to4/1 4/1to5/1 5/1to6/1 6/1to7/1"/>
    </vehicle>

    <vehicle id="0.111" type="Eissfeldt" depart="201.00" arrival="794.00">
        <routeDistribution>
            <route replacedOnEdge="5/1to6/1" replacedAtTime="422.00" probability="0" edges="1/1to2/1 2/1to3/1 3/1to4/1 4/1to5/1 5/1to6/1 6/1to7/1"/>
            <route edges="1/1to2/1 2/1to3/1 3/1to4/1 4/1to5/1 5/1to6/1 6/1to7/1 7/1to8/1 8/1to9/1 9/1to10/1 10/1to1/1 1/1to2/1"/>
        </routeDistribution>
    </vehicle>

    <vehicle id="0.248" type="Eissfeldt" depart="475.00" arrival="796.00">
        <route edges="1/1to2/1 2/1to3/1 3/1to4/1 4/1to5/1 5/1to6/1 6/1to7/1"/>
    </vehicle>

    <vehicle id="0.112" type="Eissfeldt" depart="203.00" arrival="796.00">
        <routeDistribution>
            <route replacedOnEdge="5/1to6/1" replacedAtTime="424.00" probability="0" edges="1/1to2/1 2/1to3/1 3/1to4/1 4/1to5/1 5/1to6/1 6/1to7/1"/>
            <route edges="1/1to2/1 2/1to3/1 3/1to4/1 4/1to5/1 5/1to6/1 6/1to7/1 7/1to8/1 8/1to9/1 9/1to10/1 10/1to1/1 1/1to2/1"/>
        </routeDistribution>
    </vehicle>

    <vehicle id="0.249" type="Eissfeldt" depart="477.00" arrival="798.00">
        <route edges="1/1to2/1 2/1to3/1 3/1to4/1 4/1to5/1 5/1to6/1 6/1to7/1"/>
    </vehicle>

    <vehicle id="0.113" type="Eissfeldt" depart="205.00" arrival="798.00">
        <routeDistribution>
            <route replacedOnEdge="5/1to6/1" replacedAtTime="426.00" probability="0" edges="1/1to2/1 2/1to3/1 3/1to4/1 4/1to5/1 5/1to6/1 6/1to7/1"/>
            <route edges="1/1to2/1 2/1to3/1 3/1to4/1 4/1to5/1 5/1to6/1 6/1to7/1 7/1to8/1 8/1to9/1 9/1to10/1 10/1to1/1 1/1to2/1"/>
        </routeDistribution>
    </vehicle>

    <vehicle id="0.250" type="Eissfeldt" depart="479.00" arrival="800.00">
        <route edges="1/1to2/1 2/1to3/1 3/1to4/1 4/1to5/1 5/1to6/1 6/1to7/1"/>
    </vehicle>

    <vehicle id="0.114" type="Eissfeldt" depart="207.00" arrival="800.00">
        <routeDistribution>
            <route replacedOnEdge="5/1to6/1" replacedAtTime="428.00" probability="0" edges="1/1to2/1 2/1to3/1 3/1to4/1 4/1to5/1 5/1to6/1 6/1to7/1"/>
            <route edges="1/1to2/1 2/1to3/1 3/1to4/1 4/1to5/1 5/1to6/1 6/1to7/1 7/1to8/1 8/1to9/1 9/1to10/1 10/1to1/1 1/1to2/1"/>
        </routeDistribution>
    </vehicle>

    <vehicle id="0.251" type="Eissfeldt" depart="481.00" arrival="802.00">
        <route edges="1/1to2/1 2/1to3/1 3/1to4/1 4/1to5/1 5/1to6/1 6/1to7/1"/>
    </vehicle>

    <vehicle id="0.115" type="Eissfeldt" depart="209.00" arrival="802.00">
        <routeDistribution>
            <route replacedOnEdge="5/1to6/1" replacedAtTime="430.00" probability="0" edges="1/1to2/1 2/1to3/1 3/1to4/1 4/1to5/1 5/1to6/1 6/1to7/1"/>
            <route edges="1/1to2/1 2/1to3/1 3/1to4/1 4/1to5/1 5/1to6/1 6/1to7/1 7/1to8/1 8/1to9/1 9/1to10/1 10/1to1/1 1/1to2/1"/>
        </routeDistribution>
    </vehicle>

    <vehicle id="0.252" type="Eissfeldt" depart="483.00" arrival="804.00">
        <route edges="1/1to2/1 2/1to3/1 3/1to4/1 4/1to5/1 5/1to6/1 6/1to7/1"/>
    </vehicle>

    <vehicle id="0.116" type="Eissfeldt" depart="211.00" arrival="804.00">
        <routeDistribution>
            <route replacedOnEdge="5/1to6/1" replacedAtTime="432.00" probability="0" edges="1/1to2/1 2/1to3/1 3/1to4/1 4/1to5/1 5/1to6/1 6/1to7/1"/>
            <route edges="1/1to2/1 2/1to3/1 3/1to4/1 4/1to5/1 5/1to6/1 6/1to7/1 7/1to8/1 8/1to9/1 9/1to10/1 10/1to1/1 1/1to2/1"/>
        </routeDistribution>
    </vehicle>

    <vehicle id="0.253" type="Eissfeldt" depart="485.00" arrival="806.00">
        <route edges="1/1to2/1 2/1to3/1 3/1to4/1 4/1to5/1 5/1to6/1 6/1to7/1"/>
    </vehicle>

    <vehicle id="0.117" type="Eissfeldt" depart="213.00" arrival="806.00">
        <routeDistribution>
            <route replacedOnEdge="5/1to6/1" replacedAtTime="434.00" probability="0" edges="1/1to2/1 2/1to3/1 3/1to4/1 4/1to5/1 5/1to6/1 6/1to7/1"/>
            <route edges="1/1to2/1 2/1to3/1 3/1to4/1 4/1to5/1 5/1to6/1 6/1to7/1 7/1to8/1 8/1to9/1 9/1to10/1 10/1to1/1 1/1to2/1"/>
        </routeDistribution>
    </vehicle>

    <vehicle id="0.254" type="Eissfeldt" depart="487.00" arrival="808.00">
        <route edges="1/1to2/1 2/1to3/1 3/1to4/1 4/1to5/1 5/1to6/1 6/1to7/1"/>
    </vehicle>

    <vehicle id="0.118" type="Eissfeldt" depart="215.00" arrival="808.00">
        <routeDistribution>
            <route replacedOnEdge="5/1to6/1" replacedAtTime="436.00" probability="0" edges="1/1to2/1 2/1to3/1 3/1to4/1 4/1to5/1 5/1to6/1 6/1to7/1"/>
            <route edges="1/1to2/1 2/1to3/1 3/1to4/1 4/1to5/1 5/1to6/1 6/1to7/1 7/1to8/1 8/1to9/1 9/1to10/1 10/1to1/1 1/1to2/1"/>
        </routeDistribution>
    </vehicle>

    <vehicle id="0.255" type="Eissfeldt" depart="489.00" arrival="810.00">
        <route edges="1/1to2/1 2/1to3/1 3/1to4/1 4/1to5/1 5/1to6/1 6/1to7/1"/>
    </vehicle>

    <vehicle id="0.119" type="Eissfeldt" depart="217.00" arrival="810.00">
        <routeDistribution>
            <route replacedOnEdge="5/1to6/1" replacedAtTime="438.00" probability="0" edges="1/1to2/1 2/1to3/1 3/1to4/1 4/1to5/1 5/1to6/1 6/1to7/1"/>
            <route edges="1/1to2/1 2/1to3/1 3/1to4/1 4/1to5/1 5/1to6/1 6/1to7/1 7/1to8/1 8/1to9/1 9/1to10/1 10/1to1/1 1/1to2/1"/>
        </routeDistribution>
    </vehicle>

    <vehicle id="0.256" type="Eissfeldt" depart="491.00" arrival="812.00">
        <route edges="1/1to2/1 2/1to3/1 3/1to4/1 4/1to5/1 5/1to6/1 6/1to7/1"/>
    </vehicle>

    <vehicle id="0.120" type="Eissfeldt" depart="219.00" arrival="812.00">
        <routeDistribution>
            <route replacedOnEdge="5/1to6/1" replacedAtTime="440.00" probability="0" edges="1/1to2/1 2/1to3/1 3/1to4/1 4/1to5/1 5/1to6/1 6/1to7/1"/>
            <route edges="1/1to2/1 2/1to3/1 3/1to4/1 4/1to5/1 5/1to6/1 6/1to7/1 7/1to8/1 8/1to9/1 9/1to10/1 10/1to1/1 1/1to2/1"/>
        </routeDistribution>
    </vehicle>

    <vehicle id="0.257" type="Eissfeldt" depart="493.00" arrival="814.00">
        <route edges="1/1to2/1 2/1to3/1 3/1to4/1 4/1to5/1 5/1to6/1 6/1to7/1"/>
    </vehicle>

    <vehicle id="0.121" type="Eissfeldt" depart="221.00" arrival="814.00">
        <routeDistribution>
            <route replacedOnEdge="5/1to6/1" replacedAtTime="442.00" probability="0" edges="1/1to2/1 2/1to3/1 3/1to4/1 4/1to5/1 5/1to6/1 6/1to7/1"/>