<?xml version="1.0"?>

<!-- generated on 07/07/11 07:09:00 by SUMO sumo Version dev-SVN-r10879
<?xml version="1.0" encoding="iso-8859-1"?>

<configuration xmlns:xsi="http://www.w3.org/2001/XMLSchema-instance" xsi:noNamespaceSchemaLocation="http://sumo.sf.net/xsd/sumoConfiguration.xsd">

    <input>
        <net-file value="net.net.xml"/>
        <route-files value="input_routes.rou.xml"/>
        <additional-files value="input_additional.add.xml"/>
    </input>

    <output>
        <vehroute-output value="vehroutes.xml"/>
    </output>

    <time>
        <begin value="0"/>
        <end value="10000"/>
    </time>

    <report>
        <no-duration-log value="true"/>
        <no-step-log value="true"/>
    </report>

</configuration>
-->

<routes>
    <vehicle id="0.131" depart="389.00" arrival="654.00">
        <route edges="1/1to2/1 2/1to3/1 3/1to4/1 4/1to5/1 5/1to6/1 6/1to7/1"/>
    </vehicle>

    <vehicle id="0.45" depart="132.00" arrival="655.00">
        <routeDistribution>
            <route replacedOnEdge="5/1to6/1" replacedAtTime="344.00" probability="0" edges="1/1to2/1 2/1to3/1 3/1to4/1 4/1to5/1 5/1to6/1 6/1to7/1"/>
            <route edges="1/1to2/1 2/1to3/1 3/1to4/1 4/1to5/1 5/1to6/1 6/1to7/1 7/1to8/1 8/1to9/1 9/1to10/1 10/1to1/1 1/1to2/1"/>
        </routeDistribution>
    </vehicle>

    <vehicle id="0.132" depart="392.00" arrival="657.00">
        <route edges="1/1to2/1 2/1to3/1 3/1to4/1 4/1to5/1 5/1to6/1 6/1to7/1"/>
    </vehicle>

    <vehicle id="0.46" depart="135.00" arrival="658.00">
        <routeDistribution>
            <route replacedOnEdge="5/1to6/1" replacedAtTime="347.00" probability="0" edges="1/1to2/1 2/1to3/1 3/1to4/1 4/1to5/1 5/1to6/1 6/1to7/1"/>
            <route edges="1/1to2/1 2/1to3/1 3/1to4/1 4/1to5/1 5/1to6/1 6/1to7/1 7/1to8/1 8/1to9/1 9/1to10/1 10/1to1/1 1/1to2/1"/>
        </routeDistribution>
    </vehicle>

    <vehicle id="0.133" depart="395.00" arrival="659.00">
        <route edges="1/1to2/1 2/1to3/1 3/1to4/1 4/1to5/1 5/1to6/1 6/1to7/1"/>
    </vehicle>

    <vehicle id="0.47" depart="138.00" arrival="661.00">
        <routeDistribution>
            <route replacedOnEdge="5/1to6/1" replacedAtTime="350.00" probability="0" edges="1/1to2/1 2/1to3/1 3/1to4/1 4/1to5/1 5/1to6/1 6/1to7/1"/>
            <route edges="1/1to2/1 2/1to3/1 3/1to4/1 4/1to5/1 5/1to6/1 6/1to7/1 7/1to8/1 8/1to9/1 9/1to10/1 10/1to1/1 1/1to2/1"/>
        </routeDistribution>
    </vehicle>

    <vehicle id="0.134" depart="398.00" arrival="663.00">
        <route edges="1/1to2/1 2/1to3/1 3/1to4/1 4/1to5/1 5/1to6/1 6/1to7/1"/>
    </vehicle>

    <vehicle id="0.48" depart="141.00" arrival="664.00">
        <routeDistribution>
            <route replacedOnEdge="5/1to6/1" replacedAtTime="353.00" probability="0" edges="1/1to2/1 2/1to3/1 3/1to4/1 4/1to5/1 5/1to6/1 6/1to7/1"/>
            <route edges="1/1to2/1 2/1to3/1 3/1to4/1 4/1to5/1 5/1to6/1 6/1to7/1 7/1to8/1 8/1to9/1 9/1to10/1 10/1to1/1 1/1to2/1"/>
        </routeDistribution>
    </vehicle>

    <vehicle id="0.135" depart="401.00" arrival="665.00">
        <route edges="1/1to2/1 2/1to3/1 3/1to4/1 4/1to5/1 5/1to6/1 6/1to7/1"/>
    </vehicle>

    <vehicle id="0.49" depart="144.00" arrival="667.00">
        <routeDistribution>
            <route replacedOnEdge="5/1to6/1" replacedAtTime="356.00" probability="0" edges="1/1to2/1 2/1to3/1 3/1to4/1 4/1to5/1 5/1to6/1 6/1to7/1"/>
            <route edges="1/1to2/1 2/1to3/1 3/1to4/1 4/1to5/1 5/1to6/1 6/1to7/1 7/1to8/1 8/1to9/1 9/1to10/1 10/1to1/1 1/1to2/1"/>
        </routeDistribution>
    </vehicle>

    <vehicle id="0.136" depart="405.00" arrival="668.00">
        <route edges="1/1to2/1 2/1to3/1 3/1to4/1 4/1to5/1 5/1to6/1 6/1to7/1"/>
    </vehicle>

    <vehicle id="0.50" depart="147.00" arrival="670.00">
        <routeDistribution>
            <route replacedOnEdge="5/1to6/1" replacedAtTime="359.00" probability="0" edges="1/1to2/1 2/1to3/1 3/1to4/1 4/1to5/1 5/1to6/1 6/1to7/1"/>
            <route edges="1/1to2/1 2/1to3/1 3/1to4/1 4/1to5/1 5/1to6/1 6/1to7/1 7/1to8/1 8/1to9/1 9/1to10/1 10/1to1/1 1/1to2/1"/>
        </routeDistribution>
    </vehicle>

    <vehicle id="0.137" depart="407.00" arrival="672.00">
        <route edges="1/1to2/1 2/1to3/1 3/1to4/1 4/1to5/1 5/1to6/1 6/1to7/1"/>
    </vehicle>

    <vehicle id="0.51" depart="150.00" arrival="673.00">
        <routeDistribution>
            <route replacedOnEdge="5/1to6/1" replacedAtTime="361.00" probability="0" edges="1/1to2/1 2/1to3/1 3/1to4/1 4/1to5/1 5/1to6/1 6/1to7/1"/>
            <route edges="1/1to2/1 2/1to3/1 3/1to4/1 4/1to5/1 5/1to6/1 6/1to7/1 7/1to8/1 8/1to9/1 9/1to10/1 10/1to1/1 1/1to2/1"/>
        </routeDistribution>
    </vehicle>

    <vehicle id="0.138" depart="411.00" arrival="675.00">
        <route edges="1/1to2/1 2/1to3/1 3/1to4/1 4/1to5/1 5/1to6/1 6/1to7/1"/>
    </vehicle>

    <vehicle id="0.52" depart="153.00" arrival="676.00">
        <routeDistribution>
            <route replacedOnEdge="5/1to6/1" replacedAtTime="365.00" probability="0" edges="1/1to2/1 2/1to3/1 3/1to4/1 4/1to5/1 5/1to6/1 6/1to7/1"/>
            <route edges="1/1to2/1 2/1to3/1 3/1to4/1 4/1to5/1 5/1to6/1 6/1to7/1 7/1to8/1 8/1to9/1 9/1to10/1 10/1to1/1 1/1to2/1"/>
        </routeDistribution>
    </vehicle>

    <vehicle id="0.139" depart="414.00" arrival="678.00">
        <route edges="1/1to2/1 2/1to3/1 3/1to4/1 4/1to5/1 5/1to6/1 6/1to7/1"/>
    </vehicle>

    <vehicle id="0.53" depart="156.00" arrival="679.00">
        <routeDistribution>
            <route replacedOnEdge="5/1to6/1" replacedAtTime="368.00" probability="0" edges="1/1to2/1 2/1to3/1 3/1to4/1 4/1to5/1 5/1to6/1 6/1to7/1"/>
            <route edges="1/1to2/1 2/1to3/1 3/1to4/1 4/1to5/1 5/1to6/1 6/1to7/1 7/1to8/1 8/1to9/1 9/1to10/1 10/1to1/1 1/1to2/1"/>
        </routeDistribution>
    </vehicle>

    <vehicle id="0.140" depart="417.00" arrival="682.00">
        <route edges="1/1to2/1 2/1to3/1 3/1to4/1 4/1to5/1 5/1to6/1 6/1to7/1"/>
    </vehicle>

    <vehicle id="0.54" depart="159.00" arrival="683.00">
        <routeDistribution>
            <route replacedOnEdge="5/1to6/1" replacedAtTime="371.00" probability="0" edges="1/1to2/1 2/1to3/1 3/1to4/1 4/1to5/1 5/1to6/1 6/1to7/1"/>
            <route edges="1/1to2/1 2/1to3/1 3/1to4/1 4/1to5/1 5/1to6/1 6/1to7/1 7/1to8/1 8/1to9/1 9/1to10/1 10/1to1/1 1/1to2/1"/>
        </routeDistribution>
    </vehicle>

    <vehicle id="0.55" depart="162.00" arrival="685.00">
        <routeDistribution>
            <route replacedOnEdge="5/1to6/1" replacedAtTime="374.00" probability="0" edges="1/1to2/1 2/1to3/1 3/1to4/1 4/1to5/1 5/1to6/1 6/1to7/1"/>
            <route edges="1/1to2/1 2/1to3/1 3/1to4/1 4/1to5/1 5/1to6/1 6/1to7/1 7/1to8/1 8/1to9/1 9/1to10/1 10/1to1/1 1/1to2/1"/>
        </routeDistribution>
    </vehicle>

    <vehicle id="0.141" depart="420.00" arrival="685.00">
        <route edges="1/1to2/1 2/1to3/1 3/1to4/1 4/1to5/1 5/1to6/1 6/1to7/1"/>
    </vehicle>

    <vehicle id="0.142" depart="423.00" arrival="687.00">
        <route edges="1/1to2/1 2/1to3/1 3/1to4/1 4/1to5/1 5/1to6/1 6/1to7/1"/>
    </vehicle>

    <vehicle id="0.56" depart="165.00" arrival="687.00">
        <routeDistribution>
            <route replacedOnEdge="5/1to6/1" replacedAtTime="377.00" probability="0" edges="1/1to2/1 2/1to3/1 3/1to4/1 4/1to5/1 5/1to6/1 6/1to7/1"/>
            <route edges="1/1to2/1 2/1to3/1 3/1to4/1 4/1to5/1 5/1to6/1 6/1to7/1 7/1to8/1 8/1to9/1 9/1to10/1 10/1to1/1 1/1to2/1"/>
        </routeDistribution>
    </vehicle>

    <vehicle id="0.143" depart="426.00" arrival="690.00">
        <route edges="1/1to2/1 2/1to3/1 3/1to4/1 4/1to5/1 5/1to6/1 6/1to7/1"/>
    </vehicle>

    <vehicle id="0.57" depart="168.00" arrival="692.00">
        <routeDistribution>
            <route replacedOnEdge="5/1to6/1" replacedAtTime="380.00" probability="0" edges="1/1to2/1 2/1to3/1 3/1to4/1 4/1to5/1 5/1to6/1 6/1to7/1"/>
            <route edges="1/1to2/1 2/1to3/1 3/1to4/1 4/1to5/1 5/1to6/1 6/1to7/1 7/1to8/1 8/1to9/1 9/1to10/1 10/1to1/1 1/1to2/1"/>
        </routeDistribution>
    </vehicle>

    <vehicle id="0.144" depart="429.00" arrival="693.00">
        <route edges="1/1to2/1 2/1to3/1 3/1to4/1 4/1to5/1 5/1to6/1 6/1to7/1"/>
    </vehicle>

    <vehicle id="0.145" depart="432.00" arrival="695.00">
        <route edges="1/1to2/1 2/1to3/1 3/1to4/1 4/1to5/1 5/1to6/1 6/1to7/1"/>
    </vehicle>

    <vehicle id="0.58" depart="171.00" arrival="695.00">
        <routeDistribution>
            <route replacedOnEdge="5/1to6/1" replacedAtTime="383.00" probability="0" edges="1/1to2/1 2/1to3/1 3/1to4/1 4/1to5/1 5/1to6/1 6/1to7/1"/>
            <route edges="1/1to2/1 2/1to3/1 3/1to4/1 4/1to5/1 5/1to6/1 6/1to7/1 7/1to8/1 8/1to9/1 9/1to10/1 10/1to1/1 1/1to2/1"/>
        </routeDistribution>
    </vehicle>

    <vehicle id="0.59" depart="174.00" arrival="697.00">
        <routeDistribution>
            <route replacedOnEdge="5/1to6/1" replacedAtTime="386.00" probability="0" edges="1/1to2/1 2/1to3/1 3/1to4/1 4/1to5/1 5/1to6/1 6/1to7/1"/>
            <route edges="1/1to2/1 2/1to3/1 3/1to4/1 4/1to5/1 5/1to6/1 6/1to7/1 7/1to8/1 8/1to9/1 9/1to10/1 10/1to1/1 1/1to2/1"/>
        </routeDistribution>
    </vehicle>

    <vehicle id="0.146" depart="435.00" arrival="699.00">
        <route edges="1/1to2/1 2/1to3/1 3/1to4/1 4/1to5/1 5/1to6/1 6/1to7/1"/>
    </vehicle>

    <vehicle id="0.60" depart="176.00" arrival="700.00">
        <routeDistribution>
            <route replacedOnEdge="5/1to6/1" replacedAtTime="389.00" probability="0" edges="1/1to2/1 2/1to3/1 3/1to4/1 4/1to5/1 5/1to6/1 6/1to7/1"/>
            <route edges="1/1to2/1 2/1to3/1 3/1to4/1 4/1to5/1 5/1to6/1 6/1to7/1 7/1to8/1 8/1to9/1 9/1to10/1 10/1to1/1 1/1to2/1"/>
        </routeDistribution>
    </vehicle>

    <vehicle id="0.147" depart="438.00" arrival="701.00">
        <route edges="1/1to2/1 2/1to3/1 3/1to4/1 4/1to5/1 5/1to6/1 6/1to7/1"/>
    </vehicle>

    <vehicle id="0.61" depart="180.00" arrival="703.00">
        <routeDistribution>
            <route replacedOnEdge="5/1to6/1" replacedAtTime="392.00" probability="0" edges="1/1to2/1 2/1to3/1 3/1to4/1 4/1to5/1 5/1to6/1 6/1to7/1"/>
            <route edges="1/1to2/1 2/1to3/1 3/1to4/1 4/1to5/1 5/1to6/1 6/1to7/1 7/1to8/1 8/1to9/1 9/1to10/1 10/1to1/1 1/1to2/1"/>
        </routeDistribution>
    </vehicle>

    <vehicle id="0.148" depart="440.00" arrival="704.00">
        <route edges="1/1to2/1 2/1to3/1 3/1to4/1 4/1to5/1 5/1to6/1 6/1to7/1"/>
    </vehicle>

    <vehicle id="0.62" depart="183.00" arrival="706.00">
        <routeDistribution>
            <route replacedOnEdge="5/1to6/1" replacedAtTime="395.00" probability="0" edges="1/1to2/1 2/1to3/1 3/1to4/1 4/1to5/1 5/1to6/1 6/1to7/1"/>
            <route edges="1/1to2/1 2/1to3/1 3/1to4/1 4/1to5/1 5/1to6/1 6/1to7/1 7/1to8/1 8/1to9/1 9/1to10/1 10/1to1/1 1/1to2/1"/>
        </routeDistribution>
    </vehicle>

    <vehicle id="0.149" depart="443.00" arrival="707.00">
        <route edges="1/1to2/1 2/1to3/1 3/1to4/1 4/1to5/1 5/1to6/1 6/1to7/1"/>
    </vehicle>

    <vehicle id="0.63" depart="186.00" arrival="708.00">
        <routeDistribution>
            <route replacedOnEdge="5/1to6/1" replacedAtTime="398.00" probability="0" edges="1/1to2/1 2/1to3/1 3/1to4/1 4/1to5/1 5/1to6/1 6/1to7/1"/>
            <route edges="1/1to2/1 2/1to3/1 3/1to4/1 4/1to5/1 5/1to6/1 6/1to7/1 7/1to8/1 8/1to9/1 9/1to10/1 10/1to1/1 1/1to2/1"/>
        </routeDistribution>
    </vehicle>

    <vehicle id="0.150" depart="446.00" arrival="710.00">
        <route edges="1/1to2/1 2/1to3/1 3/1to4/1 4/1to5/1 5/1to6/1 6/1to7/1"/>
    </vehicle>

    <vehicle id="0.64" depart="189.00" arrival="713.00">
        <routeDistribution>
            <route replacedOnEdge="5/1to6/1" replacedAtTime="402.00" probability="0" edges="1/1to2/1 2/1to3/1 3/1to4/1 4/1to5/1 5/1to6/1 6/1to7/1"/>
            <route edges="1/1to2/1 2/1to3/1 3/1to4/1 4/1to5/1 5/1to6/1 6/1to7/1 7/1to8/1 8/1to9/1 9/1to10/1 10/1to1/1 1/1to2/1"/>
        </routeDistribution>
    </vehicle>

    <vehicle id="0.151" depart="449.00" arrival="713.00">
        <route edges="1/1to2/1 2/1to3/1 3/1to4/1 4/1to5/1 5/1to6/1 6/1to7/1"/>
    </vehicle>

    <vehicle id="0.65" depart="192.00" arrival="715.00">
        <routeDistribution>
            <route replacedOnEdge="5/1to6/1" replacedAtTime="404.00" probability="0" edges="1/1to2/1 2/1to3/1 3/1to4/1 4/1to5/1 5/1to6/1 6/1to7/1"/>
            <route edges="1/1to2/1 2/1to3/1 3/1to4/1 4/1to5/1 5/1to6/1 6/1to7/1 7/1to8/1 8/1to9/1 9/1to10/1 10/1to1/1 1/1to2/1"/>
        </routeDistribution>
    </vehicle>

    <vehicle id="0.152" depart="452.00" arrival="716.00">
        <route edges="1/1to2/1 2/1to3/1 3/1to4/1 4/1to5/1 5/1to6/1 6/1to7/1"/>
    </vehicle>

    <vehicle id="0.153" depart="455.00" arrival="719.00">
        <route edges="1/1to2/1 2/1to3/1 3/1to4/1 4/1to5/1 5/1to6/1 6/1to7/1"/>
    </vehicle>

    <vehicle id="0.66" depart="195.00" arrival="719.00">
        <routeDistribution>
            <route replacedOnEdge="5/1to6/1" replacedAtTime="408.00" probability="0" edges="1/1to2/1 2/1to3/1 3/1to4/1 4/1to5/1 5/1to6/1 6/1to7/1"/>
            <route edges="1/1to2/1 2/1to3/1 3/1to4/1 4/1to5/1 5/1to6/1 6/1to7/1 7/1to8/1 8/1to9/1 9/1to10/1 10/1to1/1 1/1to2/1"/>
        </routeDistribution>
    </vehicle>

    <vehicle id="0.67" depart="198.00" arrival="721.00">
        <routeDistribution>
            <route replacedOnEdge="5/1to6/1" replacedAtTime="410.00" probability="0" edges="1/1to2/1 2/1to3/1 3/1to4/1 4/1to5/1 5/1to6/1 6/1to7/1"/>
            <route edges="1/1to2/1 2/1to3/1 3/1to4/1 4/1to5/1 5/1to6/1 6/1to7/1 7/1to8/1 8/1to9/1 9/1to10/1 10/1to1/1 1/1to2/1"/>
        </routeDistribution>
    </vehicle>

    <vehicle id="0.154" depart="458.00" arrival="722.00">
        <route edges="1/1to2/1 2/1to3/1 3/1to4/1 4/1to5/1 5/1to6/1 6/1to7/1"/>
    </vehicle>

    <vehicle id="0.68" depart="200.00" arrival="724.00">
        <routeDistribution>
            <route replacedOnEdge="5/1to6/1" replacedAtTime="412.00" probability="0" edges="1/1to2/1 2/1to3/1 3/1to4/1 4/1to5/1 5/1to6/1 6/1to7/1"/>
            <route edges="1/1to2/1 2/1to3/1 3/1to4/1 4/1to5/1 5/1to6/1 6/1to7/1 7/1to8/1 8/1to9/1 9/1to10/1 10/1to1/1 1/1to2/1"/>
        </routeDistribution>
    </vehicle>

    <vehicle id="0.155" depart="461.00" arrival="725.00">
        <route edges="1/1to2/1 2/1to3/1 3/1to4/1 4/1to5/1 5/1to6/1 6/1to7/1"/>
    </vehicle>

    <vehicle id="0.69" depart="204.00" arrival="727.00">
        <routeDistribution>
            <route replacedOnEdge="5/1to6/1" replacedAtTime="416.00" probability="0" edges="1/1to2/1 2/1to3/1 3/1to4/1 4/1to5/1 5/1to6/1 6/1to7/1"/>
            <route edges="1/1to2/1 2/1to3/1 3/1to4/1 4/1to5/1 5/1to6/1 6/1to7/1 7/1to8/1 8/1to9/1 9/1to10/1 10/1to1/1 1/1to2/1"/>
        </routeDistribution>
    </vehicle>

    <vehicle id="0.156" depart="464.00" arrival="728.00">
        <route edges="1/1to2/1 2/1to3/1 3/1to4/1 4/1to5/1 5/1to6/1 6/1to7/1"/>
    </vehicle>

    <vehicle id="0.70" depart="207.00" arrival="730.00">
        <routeDistribution>
            <route replacedOnEdge="5/1to6/1" replacedAtTime="419.00" probability="0" edges="1/1to2/1 2/1to3/1 3/1to4/1 4/1to5/1 5/1to6/1 6/1to7/1"/>
            <route edges="1/1to2/1 2/1to3/1 3/1to4/1 4/1to5/1 5/1to6/1 6/1to7/1 7/1to8/1 8/1to9/1 9/1to10/1 10/1to1/1 1/1to2/1"/>
        </routeDistribution>
    </vehicle>

    <vehicle id="0.157" depart="467.00" arrival="731.00">
        <route edges="1/1to2/1 2/1to3/1 3/1to4/1 4/1to5/1 5/1to6/1 6/1to7/1"/>
    </vehicle>

    <vehicle id="0.71" depart="210.00" arrival="733.00">
        <routeDistribution>
            <route replacedOnEdge="5/1to6/1" replacedAtTime="421.00" probability="0" edges="1/1to2/1 2/1to3/1 3/1to4/1 4/1to5/1 5/1to6/1 6/1to7/1"/>
            <route edges="1/1to2/1 2/1to3/1 3/1to4/1 4/1to5/1 5/1to6/1 6/1to7/1 7/1to8/1 8/1to9/1 9/1to10/1 10/1to1/1 1/1to2/1"/>
        </routeDistribution>
    </vehicle>

    <vehicle id="0.158" depart="470.00" arrival="734.00">
        <route edges="1/1to2/1 2/1to3/1 3/1to4/1 4/1to5/1 5/1to6/1 6/1to7/1"/>
    </vehicle>

    <vehicle id="0.72" depart="213.00" arrival="736.00">
        <routeDistribution>
            <route replacedOnEdge="5/1to6/1" replacedAtTime="425.00" probability="0" edges="1/1to2/1 2/1to3/1 3/1to4/1 4/1to5/1 5/1to6/1 6/1to7/1"/>
            <route edges="1/1to2/1 2/1to3/1 3/1to4/1 4/1to5/1 5/1to6/1 6/1to7/1 7/1to8/1 8/1to9/1 9/1to10/1 10/1to1/1 1/1to2/1"/>
        </routeDistribution>
    </vehicle>

    <vehicle id="0.159" depart="473.00" arrival="737.00">
        <route edges="1/1to2/1 2/1to3/1 3/1to4/1 4/1to5/1 5/1to6/1 6/1to7/1"/>
    </vehicle>

    <vehicle id="0.73" depart="216.00" arrival="739.00">
        <routeDistribution>
            <route replacedOnEdge="5/1to6/1" replacedAtTime="428.00" probability="0" edges="1/1to2/1 2/1to3/1 3/1to4/1 4/1to5/1 5/1to6/1 6/1to7/1"/>
            <route edges="1/1to2/1 2/1to3/1 3/1to4/1 4/1to5/1 5/1to6/1 6/1to7/1 7/1to8/1 8/1to9/1 9/1to10/1 10/1to1/1 1/1to2/1"/>
        </routeDistribution>
    </vehicle>

    <vehicle id="0.160" depart="476.00" arrival="740.00">
        <route edges="1/1to2/1 2/1to3/1 3/1to4/1 4/1to5/1 5/1to6/1 6/1to7/1"/>
    </vehicle>

    <vehicle id="0.161" depart="479.00" arrival="742.00">
        <route edges="1/1to2/1 2/1to3/1 3/1to4/1 4/1to5/1 5/1to6/1 6/1to7/1"/>
    </vehicle>

    <vehicle id="0.74" depart="219.00" arrival="743.00">
        <routeDistribution>
            <route replacedOnEdge="5/1to6/1" replacedAtTime="431.00" probability="0" edges="1/1to2/1 2/1to3/1 3/1to4/1 4/1to5/1 5/1to6/1 6/1to7/1"/>
            <route edges="1/1to2/1 2/1to3/1 3/1to4/1 4/1to5/1 5/1to6/1 6/1to7/1 7/1to8/1 8/1to9/1 9/1to10/1 10/1to1/1 1/1to2/1"/>
        </routeDistribution>
    </vehicle>

    <vehicle id="0.162" depart="482.00" arrival="746.00">
        <route edges="1/1to2/1 2/1to3/1 3/1to4/1 4/1to5/1 5/1to6/1 6/1to7/1"/>
    </vehicle>

    <vehicle id="0.75" depart="222.00" arrival="746.00">
        <routeDistribution>
            <route replacedOnEdge="5/1to6/1" replacedAtTime="435.00" probability="0" edges="1/1to2/1 2/1to3/1 3/1to4/1 4/1to5/1 5/1to6/1 6/1to7/1"/>
            <route edges="1/1to2/1 2/1to3/1 3/1to4/1 4/1to5/1 5/1to6/1 6/1to7/1 7/1to8/1 8/1to9/1 9/1to10/1 10/1to1/1 1/1to2/1"/>
        </routeDistribution>
    </vehicle>

    <vehicle id="0.76" depart="225.00" arrival="748.00">
        <routeDistribution>
            <route replacedOnEdge="5/1to6/1" replacedAtTime="437.00" probability="0" edges="1/1to2/1 2/1to3/1 3/1to4/1 4/1to5/1 5/1to6/1 6/1to7/1"/>
            <route edges="1/1to2/1 2/1to3/1 3/1to4/1 4/1to5/1 5/1to6/1 6/1to7/1 7/1to8/1 8/1to9/1 9/1to10/1 10/1to1/1 1/1to2/1"/>
        </routeDistribution>
    </vehicle>

    <vehicle id="0.163" depart="485.00" arrival="749.00">
        <route edges="1/1to2/1 2/1to3/1 3/1to4/1 4/1to5/1 5/1to6/1 6/1to7/1"/>
    </vehicle>

    <vehicle id="0.77" depart="228.00" arrival="751.00">
        <routeDistribution>
            <route replacedOnEdge="5/1to6/1" replacedAtTime="440.00" probability="0" edges="1/1to2/1 2/1to3/1 3/1to4/1 4/1to5/1 5/1to6/1 6/1to7/1"/>
            <route edges="1/1to2/1 2/1to3/1 3/1to4/1 4/1to5/1 5/1to6/1 6/1to7/1 7/1to8/1 8/1to9/1 9/1to10/1 10/1to1/1 1/1to2/1"/>
        </routeDistribution>
    </vehicle>

    <vehicle id="0.164" depart="488.00" arrival="752.00">
        <route edges="1/1to2/1 2/1to3/1 3/1to4/1 4/1to5/1 5/1to6/1 6/1to7/1"/>
    </vehicle>

    <vehicle id="0.165" depart="491.00" arrival="755.00">
        <route edges="1/1to2/1 2/1to3/1 3/1to4/1 4/1to5/1 5/1to6/1 6/1to7/1"/>
    </vehicle>

    <vehicle id="0.78" depart="231.00" arrival="756.00">
        <routeDistribution>
            <route replacedOnEdge="5/1to6/1" replacedAtTime="443.00" probability="0" edges="1/1to2/1 2/1to3/1 3/1to4/1 4/1to5/1 5/1to6/1 6/1to7/1"/>
            <route edges="1/1to2/1 2/1to3/1 3/1to4/1 4/1to5/1 5/1to6/1 6/1to7/1 7/1to8/1 8/1to9/1 9/1to10/1 10/1to1/1 1/1to2/1"/>
        </routeDistribution>
    </vehicle>

    <vehicle id="0.166" depart="494.00" arrival="757.00">
        <route edges="1/1to2/1 2/1to3/1 3/1to4/1 4/1to5/1 5/1to6/1 6/1to7/1"/>
    </vehicle>

    <vehicle id="0.79" depart="234.00" arrival="758.00">
        <routeDistribution>
            <route replacedOnEdge="5/1to6/1" replacedAtTime="446.00" probability="0" edges="1/1to2/1 2/1to3/1 3/1to4/1 4/1to5/1 5/1to6/1 6/1to7/1"/>
            <route edges="1/1to2/1 2/1to3/1 3/1to4/1 4/1to5/1 5/1to6/1 6/1to7/1 7/1to8/1 8/1to9/1 9/1to10/1 10/1to1/1 1/1to2/1"/>
        </routeDistribution>
    </vehicle>

    <vehicle id="0.80" depart="237.00" arrival="760.00">
        <routeDistribution>
            <route replacedOnEdge="5/1to6/1" replacedAtTime="449.00" probability="0" edges="1/1to2/1 2/1to3/1 3/1to4/1 4/1to5/1 5/1to6/1 6/1to7/1"/>
            <route edges="1/1to2/1 2/1to3/1 3/1to4/1 4/1to5/1 5/1to6/1 6/1to7/1 7/1to8/1 8/1to9/1 9/1to10/1 10/1to1/1 1/1to2/1"/>
        </routeDistribution>
    </vehicle>

    <vehicle id="0.167" depart="496.00" arrival="761.00">
        <route edges="1/1to2/1 2/1to3/1 3/1to4/1 4/1to5/1 5/1to6/1 6/1to7/1"/>
    </vehicle>

    <vehicle id="0.81" depart="240.00" arrival="763.00">
        <routeDistribution>
            <route replacedOnEdge="5/1to6/1" replacedAtTime="452.00" probability="0" edges="1/1to2/1 2/1to3/1 3/1to4/1 4/1to5/1 5/1to6/1 6/1to7/1"/>
            <route edges="1/1to2/1 2/1to3/1 3/1to4/1 4/1to5/1 5/1to6/1 6/1to7/1 7/1to8/1 8/1to9/1 9/1to10/1 10/1to1/1 1/1to2/1"/>
        </routeDistribution>
    </vehicle>

    <vehicle id="0.168" depart="500.00" arrival="764.00">
        <route edges="1/1to2/1 2/1to3/1 3/1to4/1 4/1to5/1 5/1to6/1 6/1to7/1"/>
    </vehicle>

    <vehicle id="0.82" depart="243.00" arrival="766.00">
        <routeDistribution>
            <route replacedOnEdge="5/1to6/1" replacedAtTime="455.00" probability="0" edges="1/1to2/1 2/1to3/1 3/1to4/1 4/1to5/1 5/1to6/1 6/1to7/1"/>
            <route edges="1/1to2/1 2/1to3/1 3/1to4/1 4/1to5/1 5/1to6/1 6/1to7/1 7/1to8/1 8/1to9/1 9/1to10/1 10/1to1/1 1/1to2/1"/>
        </routeDistribution>
    </vehicle>

    <vehicle id="0.169" depart="503.00" arrival="767.00">
        <route edges="1/1to2/1 2/1to3/1 3/1to4/1 4/1to5/1 5/1to6/1 6/1to7/1"/>
    </vehicle>

    <vehicle id="0.83" depart="246.00" arrival="769.00">
        <routeDistribution>
            <route replacedOnEdge="5/1to6/1" replacedAtTime="458.00" probability="0" edges="1/1to2/1 2/1to3/1 3/1to4/1 4/1to5/1 5/1to6/1 6/1to7/1"/>
            <route edges="1/1to2/1 2/1to3/1 3/1to4/1 4/1to5/1 5/1to6/1 6/1to7/1 7/1to8/1 8/1to9/1 9/1to10/1 10/1to1/1 1/1to2/1"/>
        </routeDistribution>
    </vehicle>

    <vehicle id="0.170" depart="506.00" arrival="770.00">
        <route edges="1/1to2/1 2/1to3/1 3/1to4/1 4/1to5/1 5/1to6/1 6/1to7/1"/>
    </vehicle>

    <vehicle id="0.84" depart="249.00" arrival="772.00">
        <routeDistribution>
            <route replacedOnEdge="5/1to6/1" replacedAtTime="462.00" probability="0" edges="1/1to2/1 2/1to3/1 3/1to4/1 4/1to5/1 5/1to6/1 6/1to7/1"/>
            <route edges="1/1to2/1 2/1to3/1 3/1to4/1 4/1to5/1 5/1to6/1 6/1to7/1 7/1to8/1 8/1to9/1 9/1to10/1 10/1to1/1 1/1to2/1"/>
        </routeDistribution>
    </vehicle>

    <vehicle id="0.171" depart="509.00" arrival="774.00">
        <route edges="1/1to2/1 2/1to3/1 3/1to4/1 4/1to5/1 5/1to6/1 6/1to7/1"/>
    </vehicle>

    <vehicle id="0.172" depart="512.00" arrival="776.00">
        <route edges="1/1to2/1 2/1to3/1 3/1to4/1 4/1to5/1 5/1to6/1 6/1to7/1"/>
    </vehicle>

    <vehicle id="0.85" depart="252.00" arrival="777.00">
        <routeDistribution>
            <route replacedOnEdge="5/1to6/1" replacedAtTime="465.00" probability="0" edges="1/1to2/1 2/1to3/1 3/1to4/1 4/1to5/1 5/1to6/1 6/1to7/1"/>
            <route edges="1/1to2/1 2/1to3/1 3/1to4/1 4/1to5/1 5/1to6/1 6/1to7/1 7/1to8/1 8/1to9/1 9/1to10/1 10/1to1/1 1/1to2/1"/>
        </routeDistribution>
    </vehicle>

    <vehicle id="0.173" depart="515.00" arrival="779.00">
        <route edges="1/1to2/1 2/1to3/1 3/1to4/1 4/1to5/1 5/1to6/1 6/1to7/1"/>
    </vehicle>

    <vehicle id="0.86" depart="255.00" arrival="779.00">
        <routeDistribution>
            <route replacedOnEdge="5/1to6/1" replacedAtTime="468.00" probability="0" edges="1/1to2/1 2/1to3/1 3/1to4/1 4/1to5/1 5/1to6/1 6/1to7/1"/>
            <route edges="1/1to2/1 2/1to3/1 3/1to4/1 4/1to5/1 5/1to6/1 6/1to7/1 7/1to8/1 8/1to9/1 9/1to10/1 10/1to1/1 1/1to2/1"/>
        </routeDistribution>
    </vehicle>

    <vehicle id="0.174" depart="518.00" arrival="782.00">
        <route edges="1/1to2/1 2/1to3/1 3/1to4/1 4/1to5/1 5/1to6/1 6/1to7/1"/>
    </vehicle>

    <vehicle id="0.87" depart="258.00" arrival="783.00">
        <routeDistribution>
            <route replacedOnEdge="5/1to6/1" replacedAtTime="471.00" probability="0" edges="1/1to2/1 2/1to3/1 3/1to4/1 4/1to5/1 5/1to6/1 6/1to7/1"/>
            <route edges="1/1to2/1 2/1to3/1 3/1to4/1 4/1to5/1 5/1to6/1 6/1to7/1 7/1to8/1 8/1to9/1 9/1to10/1 10/1to1/1 1/1to2/1"/>
        </routeDistribution>
    </vehicle>

    <vehicle id="0.0" depart="0.00" arrival="784.00">
        <routeDistribution>
            <route replacedOnEdge="5/1to6/1" replacedAtTime="212.00" probability="0" edges="1/1to2/1 2/1to3/1 3/1to4/1 4/1to5/1 5/1to6/1 6/1to7/1"/>
            <route replacedOnEdge="10/1to1/1" replacedAtTime="471.00" probability="0" edges="1/1to2/1 2/1to3/1 3/1to4/1 4/1to5/1 5/1to6/1 6/1to7/1 7/1to8/1 8/1to9/1 9/1to10/1 10/1to1/1 1/1to2/1"/>
            <route edges="1/1to2/1 2/1to3/1 3/1to4/1 4/1to5/1 5/1to6/1 6/1to7/1 7/1to8/1 8/1to9/1 9/1to10/1 10/1to1/1 1/1to2/1 2/1to3/1 3/1to4/1 4/1to5/1 5/1to6/1 6/1to7/1"/>
        </routeDistribution>
    </vehicle>

    <vehicle id="0.88" depart="261.00" arrival="785.00">
        <routeDistribution>
            <route replacedOnEdge="5/1to6/1" replacedAtTime="473.00" probability="0" edges="1/1to2/1 2/1to3/1 3/1to4/1 4/1to5/1 5/1to6/1 6/1to7/1"/>
            <route edges="1/1to2/1 2/1to3/1 3/1to4/1 4/1to5/1 5/1to6/1 6/1to7/1 7/1to8/1 8/1to9/1 9/1to10/1 10/1to1/1 1/1to2/1"/>
        </routeDistribution>
    </vehicle>

    <vehicle id="0.89" depart="264.00" arrival="787.00">
        <routeDistribution>
            <route replacedOnEdge="5/1to6/1" replacedAtTime="475.00" probability="0" edges="1/1to2/1 2/1to3/1 3/1to4/1 4/1to5/1 5/1to6/1 6/1to7/1"/>
            <route edges="1/1to2/1 2/1to3/1 3/1to4/1 4/1to5/1 5/1to6/1 6/1to7/1 7/1to8/1 8/1to9/1 9/1to10/1 10/1to1/1 1/1to2/1"/>
        </routeDistribution>
    </vehicle>

    <vehicle id="0.1" depart="3.00" arrival="787.00">
        <routeDistribution>
            <route replacedOnEdge="5/1to6/1" replacedAtTime="214.00" probability="0" edges="1/1to2/1 2/1to3/1 3/1to4/1 4/1to5/1 5/1to6/1 6/1to7/1"/>
            <route replacedOnEdge="10/1to1/1" replacedAtTime="474.00" probability="0" edges="1/1to2/1 2/1to3/1 3/1to4/1 4/1to5/1 5/1to6/1 6/1to7/1 7/1to8/1 8/1to9/1 9/1to10/1 10/1to1/1 1/1to2/1"/>
            <route edges="1/1to2/1 2/1to3/1 3/1to4/1 4/1to5/1 5/1to6/1 6/1to7/1 7/1to8/1 8/1to9/1 9/1to10/1 10/1to1/1 1/1to2/1 2/1to3/1 3/1to4/1 4/1to5/1 5/1to6/1 6/1to7/1"/>
        </routeDistribution>
    </vehicle>

    <vehicle id="0.2" depart="6.00" arrival="790.00">
        <routeDistribution>
            <route replacedOnEdge="5/1to6/1" replacedAtTime="218.00" probability="0" edges="1/1to2/1 2/1to3/1 3/1to4/1 4/1to5/1 5/1to6/1 6/1to7/1"/>
            <route replacedOnEdge="10/1to1/1" replacedAtTime="478.00" probability="0" edges="1/1to2/1 2/1to3/1 3/1to4/1 4/1to5/1 5/1to6/1 6/1to7/1 7/1to8/1 8/1to9/1 9/1to10/1 10/1to1/1 1/1to2/1"/>
            <route edges="1/1to2/1 2/1to3/1 3/1to4/1 4/1to5/1 5/1to6/1 6/1to7/1 7/1to8/1 8/1to9/1 9/1to10/1 10/1to1/1 1/1to2/1 2/1to3/1 3/1to4/1 4/1to5/1 5/1to6/1 6/1to7/1"/>
        </routeDistribution>
    </vehicle>

    <vehicle id="0.90" depart="267.00" arrival="791.00">
        <routeDistribution>
            <route replacedOnEdge="5/1to6/1" replacedAtTime="480.00" probability="0" edges="1/1to2/1 2/1to3/1 3/1to4/1 4/1to5/1 5/1to6/1 6/1to7/1"/>
            <route edges="1/1to2/1 2/1to3/1 3/1to4/1 4/1to5/1 5/1to6/1 6/1to7/1 7/1to8/1 8/1to9/1 9/1to10/1 10/1to1/1 1/1to2/1"/>
        </routeDistribution>
    </vehicle>

    <vehicle id="0.3" depart="9.00" arrival="792.00">
        <routeDistribution>
            <route replacedOnEdge="5/1to6/1" replacedAtTime="221.00" probability="0" edges="1/1to2/1 2/1to3/1 3/1to4/1 4/1to5/1 5/1to6/1 6/1to7/1"/>
            <route replacedOnEdge="10/1to1/1" replacedAtTime="480.00" probability="0" edges="1/1to2/1 2/1to3/1 3/1to4/1 4/1to5/1 5/1to6/1 6/1to7/1 7/1to8/1 8/1to9/1 9/1to10/1 10/1to1/1 1/1to2/1"/>
            <route edges="1/1to2/1 2/1to3/1 3/1to4/1 4/1to5/1 5/1to6/1 6/1to7/1 7/1to8/1 8/1to9/1 9/1to10/1 10/1to1/1 1/1to2/1 2/1to3/1 3/1to4/1 4/1to5/1 5/1to6/1 6/1to7/1"/>
        </routeDistribution>
    </vehicle>

    <vehicle id="0.4" depart="12.00" arrival="794.00">
        <routeDistribution>
            <route replacedOnEdge="5/1to6/1" replacedAtTime="224.00" probability="0" edges="1/1to2/1 2/1to3/1 3/1to4/1 4/1to5/1 5/1to6/1 6/1to7/1"/>
            <route replacedOnEdge="10/1to1/1" replacedAtTime="483.00" probability="0" edges="1/1to2/1 2/1to3/1 3/1to4/1 4/1to5/1 5/1to6/1 6/1to7/1 7/1to8/1 8/1to9/1 9/1to10/1 10/1to1/1 1/1to2/1"/>
            <route edges="1/1to2/1 2/1to3/1 3/1to4/1 4/1to5/1 5/1to6/1 6/1to7/1 7/1to8/1 8/1to9/1 9/1to10/1 10/1to1/1 1/1to2/1 2/1to3/1 3/1to4/1 4/1to5/1 5/1to6/1 6/1to7/1"/>
        </routeDistribution>
    </vehicle>

    <vehicle id="0.91" depart="270.00" arrival="794.00">
        <routeDistribution>
            <route replacedOnEdge="5/1to6/1" replacedAtTime="483.00" probability="0" edges="1/1to2/1 2/1to3/1 3/1to4/1 4/1to5/1 5/1to6/1 6/1to7/1"/>
            <route edges="1/1to2/1 2/1to3/1 3/1to4/1 4/1to5/1 5/1to6/1 6/1to7/1 7/1to8/1 8/1to9/1 9/1to10/1 10/1to1/1 1/1to2/1"/>
        </routeDistribution>
    </vehicle>
