<?xml version="1.0" encoding="UTF-8"?>

<!-- generated on 2024-05-18 11:11:46 by Eclipse SUMO sumo Version v1_20_0+0118-42103d31dfe
<configuration xmlns:xsi="http://www.w3.org/2001/XMLSchema-instance" xsi:noNamespaceSchemaLocation="http://sumo.dlr.de/xsd/sumoConfiguration.xsd">

    <input>
        <net-file value="net.net.xml"/>
        <route-files value="input_routes.rou.xml"/>
        <additional-files value="input_additional.add.xml"/>
    </input>

    <output>
        <tripinfo-output value="tripinfos.xml"/>
    </output>

    <report>
        <duration-log.disable value="true"/>
        <no-step-log value="true"/>
    </report>

    <mesoscopic>
        <mesosim value="true"/>
    </mesoscopic>

</configuration>
-->

<tripinfos xmlns:xsi="http://www.w3.org/2001/XMLSchema-instance" xsi:noNamespaceSchemaLocation="http://sumo.dlr.de/xsd/tripinfo_file.xsd">
    <personinfo id="p.0" depart="0.00" type="DEFAULT_PEDTYPE" speedFactor="1.06" duration="28.00" waitingTime="19.80" timeLoss="0.00" traveltime="7.20">
        <stop duration="1.00" arrival="1.00" arrivalPos="50.00" actType="waiting"/>
        <ride waitingTime="19.80" vehicle="b" depart="20.80" arrival="28.00" arrivalPos="0.00" duration="7.20" routeLength="100.00" timeLoss="0.00"/>
    </personinfo>
    <personinfo id="p.1" depart="0.10" type="DEFAULT_PEDTYPE" speedFactor="0.94" duration="27.00" waitingTime="18.80" timeLoss="0.00" traveltime="7.20">
        <stop duration="1.00" arrival="2.00" arrivalPos="50.00" actType="waiting"/>
        <ride waitingTime="18.80" vehicle="b" depart="20.80" arrival="28.00" arrivalPos="0.00" duration="7.20" routeLength="100.00" timeLoss="0.00"/>
    </personinfo>
    <personinfo id="p.2" depart="0.20" type="DEFAULT_PEDTYPE" speedFactor="1.01" duration="27.00" waitingTime="18.80" timeLoss="0.00" traveltime="7.20">
        <stop duration="1.00" arrival="2.00" arrivalPos="50.00" actType="waiting"/>
        <ride waitingTime="18.80" vehicle="b" depart="20.80" arrival="28.00" arrivalPos="0.00" duration="7.20" routeLength="100.00" timeLoss="0.00"/>
    </personinfo>
    <personinfo id="p.3" depart="0.30" type="DEFAULT_PEDTYPE" speedFactor="1.08" duration="27.00" waitingTime="18.80" timeLoss="0.00" traveltime="7.20">
        <stop duration="1.00" arrival="2.00" arrivalPos="50.00" actType="waiting"/>
        <ride waitingTime="18.80" vehicle="b" depart="20.80" arrival="28.00" arrivalPos="0.00" duration="7.20" routeLength="100.00" timeLoss="0.00"/>
    </personinfo>
    <personinfo id="p.4" depart="0.40" type="DEFAULT_PEDTYPE" speedFactor="1.03" duration="27.00" waitingTime="18.80" timeLoss="0.00" traveltime="7.20">
        <stop duration="1.00" arrival="2.00" arrivalPos="50.00" actType="waiting"/>
        <ride waitingTime="18.80" vehicle="b" depart="20.80" arrival="28.00" arrivalPos="0.00" duration="7.20" routeLength="100.00" timeLoss="0.00"/>
    </personinfo>
    <personinfo id="p.5" depart="0.50" type="DEFAULT_PEDTYPE" speedFactor="0.83" duration="27.00" waitingTime="18.80" timeLoss="0.00" traveltime="7.20">
        <stop duration="1.00" arrival="2.00" arrivalPos="50.00" actType="waiting"/>
        <ride waitingTime="18.80" vehicle="b" depart="20.80" arrival="28.00" arrivalPos="0.00" duration="7.20" routeLength="100.00" timeLoss="0.00"/>
    </personinfo>
    <personinfo id="p.6" depart="0.60" type="DEFAULT_PEDTYPE" speedFactor="1.05" duration="27.00" waitingTime="18.80" timeLoss="0.00" traveltime="7.20">
        <stop duration="1.00" arrival="2.00" arrivalPos="50.00" actType="waiting"/>
        <ride waitingTime="18.80" vehicle="b" depart="20.80" arrival="28.00" arrivalPos="0.00" duration="7.20" routeLength="100.00" timeLoss="0.00"/>
    </personinfo>
    <personinfo id="p.7" depart="0.70" type="DEFAULT_PEDTYPE" speedFactor="0.89" duration="27.00" waitingTime="18.80" timeLoss="0.00" traveltime="7.20">
        <stop duration="1.00" arrival="2.00" arrivalPos="50.00" actType="waiting"/>
        <ride waitingTime="18.80" vehicle="b" depart="20.80" arrival="28.00" arrivalPos="0.00" duration="7.20" routeLength="100.00" timeLoss="0.00"/>
    </personinfo>
    <personinfo id="p.8" depart="0.80" type="DEFAULT_PEDTYPE" speedFactor="0.94" duration="27.00" waitingTime="18.80" timeLoss="0.00" traveltime="7.20">
        <stop duration="1.00" arrival="2.00" arrivalPos="50.00" actType="waiting"/>
        <ride waitingTime="18.80" vehicle="b" depart="20.80" arrival="28.00" arrivalPos="0.00" duration="7.20" routeLength="100.00" timeLoss="0.00"/>
    </personinfo>
    <personinfo id="p.9" depart="0.90" type="DEFAULT_PEDTYPE" speedFactor="0.86" duration="27.00" waitingTime="18.80" timeLoss="0.00" traveltime="7.20">
        <stop duration="1.00" arrival="2.00" arrivalPos="50.00" actType="waiting"/>
        <ride waitingTime="18.80" vehicle="b" depart="20.80" arrival="28.00" arrivalPos="0.00" duration="7.20" routeLength="100.00" timeLoss="0.00"/>
    </personinfo>
    <tripinfo id="b" depart="0.00" departLane="" departPos="0.00" departSpeed="0.00" departDelay="0.00" arrival="48.00" arrivalLane="" arrivalPos="100.00" arrivalSpeed="5.00" duration="48.00" routeLength="200.00" waitingTime="0.00" waitingCount="0" stopTime="32.80" timeLoss="32.80" rerouteNo="0" devices="tripinfo_b routing_b person_b" vType="t" speedFactor="1.00" vaporized=""/>
</tripinfos>
