<?xml version="1.0" encoding="UTF-8"?>

<!-- generated on 2026-04-10T16:24:22.825028+01:00 by Eclipse SUMO sumo v1_26_0+1074-0d0ca2f0495
<sumoConfiguration xmlns:xsi="http://www.w3.org/2001/XMLSchema-instance" xsi:noNamespaceSchemaLocation="http://sumo.dlr.de/xsd/sumoConfiguration.xsd">

    <input>
        <net-file value="net.net.xml"/>
        <route-files value="input_routes.rou.xml"/>
        <additional-files value="input_additional.add.xml"/>
    </input>

    <output>
        <tripinfo-output value="tripinfos.xml"/>
    </output>

    <report>
        <duration-log.disable value="true"/>
        <no-step-log value="true"/>
    </report>

</sumoConfiguration>
-->

<tripinfos xmlns:xsi="http://www.w3.org/2001/XMLSchema-instance" xsi:noNamespaceSchemaLocation="http://sumo.dlr.de/xsd/tripinfo_file.xsd">
    <personinfo id="p.0" depart="0.00" type="DEFAULT_PEDTYPE" speedFactor="1.06" duration="34.00" waitingTime="19.00" timeLoss="0.00" traveltime="14.00">
        <stop duration="1.00" arrival="1.00" arrivalPos="50.00" actType="waiting"/>
        <ride waitingTime="19.00" vehicle="b" depart="20.00" arrival="34.00" arrivalPos="60.00" duration="14.00" routeLength="100.10" timeLoss="0.00"/>
    </personinfo>
    <personinfo id="p.1" depart="1.00" type="DEFAULT_PEDTYPE" speedFactor="0.94" duration="33.00" waitingTime="18.00" timeLoss="0.00" traveltime="14.00">
        <stop duration="1.00" arrival="2.00" arrivalPos="50.00" actType="waiting"/>
        <ride waitingTime="18.00" vehicle="b" depart="20.00" arrival="34.00" arrivalPos="60.00" duration="14.00" routeLength="100.10" timeLoss="0.00"/>
    </personinfo>
    <personinfo id="p.2" depart="1.00" type="DEFAULT_PEDTYPE" speedFactor="1.01" duration="33.00" waitingTime="18.00" timeLoss="0.00" traveltime="14.00">
        <stop duration="1.00" arrival="2.00" arrivalPos="50.00" actType="waiting"/>
        <ride waitingTime="18.00" vehicle="b" depart="20.00" arrival="34.00" arrivalPos="60.00" duration="14.00" routeLength="100.10" timeLoss="0.00"/>
    </personinfo>
    <personinfo id="p.3" depart="1.00" type="DEFAULT_PEDTYPE" speedFactor="1.08" duration="34.00" waitingTime="18.00" timeLoss="0.00" traveltime="15.00">
        <stop duration="1.00" arrival="2.00" arrivalPos="50.00" actType="waiting"/>
        <ride waitingTime="18.00" vehicle="b" depart="20.00" arrival="35.00" arrivalPos="60.00" duration="15.00" routeLength="100.10" timeLoss="0.00"/>
    </personinfo>
    <personinfo id="p.4" depart="1.00" type="DEFAULT_PEDTYPE" speedFactor="1.03" duration="34.00" waitingTime="18.00" timeLoss="0.00" traveltime="15.00">
        <stop duration="1.00" arrival="2.00" arrivalPos="50.00" actType="waiting"/>
        <ride waitingTime="18.00" vehicle="b" depart="20.00" arrival="35.00" arrivalPos="60.00" duration="15.00" routeLength="100.10" timeLoss="0.00"/>
    </personinfo>
    <personinfo id="p.5" depart="1.00" type="DEFAULT_PEDTYPE" speedFactor="0.83" duration="35.00" waitingTime="18.00" timeLoss="0.00" traveltime="16.00">
        <stop duration="1.00" arrival="2.00" arrivalPos="50.00" actType="waiting"/>
        <ride waitingTime="18.00" vehicle="b" depart="20.00" arrival="36.00" arrivalPos="60.00" duration="16.00" routeLength="100.10" timeLoss="0.00"/>
    </personinfo>
    <personinfo id="p.6" depart="1.00" type="DEFAULT_PEDTYPE" speedFactor="1.05" duration="35.00" waitingTime="18.00" timeLoss="0.00" traveltime="16.00">
        <stop duration="1.00" arrival="2.00" arrivalPos="50.00" actType="waiting"/>
        <ride waitingTime="18.00" vehicle="b" depart="20.00" arrival="36.00" arrivalPos="60.00" duration="16.00" routeLength="100.10" timeLoss="0.00"/>
    </personinfo>
    <personinfo id="p.7" depart="1.00" type="DEFAULT_PEDTYPE" speedFactor="0.89" duration="36.00" waitingTime="18.00" timeLoss="0.00" traveltime="17.00">
        <stop duration="1.00" arrival="2.00" arrivalPos="50.00" actType="waiting"/>
        <ride waitingTime="18.00" vehicle="b" depart="20.00" arrival="37.00" arrivalPos="60.00" duration="17.00" routeLength="100.10" timeLoss="0.00"/>
    </personinfo>
    <personinfo id="p.8" depart="1.00" type="DEFAULT_PEDTYPE" speedFactor="0.94" duration="36.00" waitingTime="18.00" timeLoss="0.00" traveltime="17.00">
        <stop duration="1.00" arrival="2.00" arrivalPos="50.00" actType="waiting"/>
        <ride waitingTime="18.00" vehicle="b" depart="20.00" arrival="37.00" arrivalPos="60.00" duration="17.00" routeLength="100.10" timeLoss="0.00"/>
    </personinfo>
    <personinfo id="p.9" depart="1.00" type="DEFAULT_PEDTYPE" speedFactor="0.86" duration="37.00" waitingTime="18.00" timeLoss="0.00" traveltime="18.00">
        <stop duration="1.00" arrival="2.00" arrivalPos="50.00" actType="waiting"/>
        <ride waitingTime="18.00" vehicle="b" depart="20.00" arrival="38.00" arrivalPos="60.00" duration="18.00" routeLength="100.10" timeLoss="0.00"/>
    </personinfo>
    <tripinfo id="b" depart="0.00" departLane="middle_0" departPos="12.10" departSpeed="13.89" departDelay="0.00" arrival="51.00" arrivalLane="end_0" arrivalPos="100.00" arrivalSpeed="9.60" duration="51.00" routeLength="188.00" waitingTime="0.00" waitingCount="0" stopTime="24.00" timeLoss="0.00" rerouteNo="0" devices="tripinfo_b routing_b person_b" vType="t" speedFactor="1.00" vaporized=""/>
</tripinfos>
