<?xml version="1.0" encoding="UTF-8"?>

<!-- generated on Tue Dec  3 16:35:37 2013 by SUMO sumo Version dev-SVN-r15233
<?xml version="1.0" encoding="UTF-8"?>

<configuration xmlns:xsi="http://www.w3.org/2001/XMLSchema-instance" xsi:noNamespaceSchemaLocation="http://sumo-sim.org/xsd/sumoConfiguration.xsd">

    <input>
        <net-file value="three_split.net.xml"/>
        <route-files value="input_routes.rou.xml"/>
        <additional-files value="input_additional.add.xml,input_additional2.add.xml"/>
    </input>

    <output>
        <netstate-dump value="rawdump.xml"/>
    </output>

    <time>
        <step-length value="1.0"/>
    </time>

    <report>
        <no-duration-log value="true"/>
        <no-step-log value="true"/>
    </report>

</configuration>
-->

<netstate xmlns:xsi="http://www.w3.org/2001/XMLSchema-instance" xsi:noNamespaceSchemaLocation="http://sumo-sim.org/xsd/netstate_file.xsd">
    <timestep time="0.00">
        <edge id="beg">
            <lane id="beg_0">
                <vehicle id="leader" pos="5.10" speed="0.00"/>
            </lane>
        </edge>
    </timestep>
    <timestep time="1.00">
        <edge id="beg">
            <lane id="beg_0">
                <vehicle id="leader" pos="7.70" speed="2.60"/>
            </lane>
        </edge>
    </timestep>
    <timestep time="2.00">
        <edge id="beg">
            <lane id="beg_0">
                <vehicle id="follower" pos="5.10" speed="0.00"/>
                <vehicle id="leader" pos="12.90" speed="5.20"/>
            </lane>
        </edge>
    </timestep>
    <timestep time="3.00">
        <edge id="beg">
            <lane id="beg_0">
                <vehicle id="follower" pos="7.70" speed="2.60"/>
                <vehicle id="leader" pos="20.70" speed="7.80"/>
            </lane>
        </edge>
    </timestep>
    <timestep time="4.00">
        <edge id="beg">
            <lane id="beg_0">
                <vehicle id="follower" pos="12.90" speed="5.20"/>
                <vehicle id="leader" pos="31.10" speed="10.40"/>
            </lane>
        </edge>
    </timestep>
    <timestep time="5.00">
        <edge id="beg">
            <lane id="beg_0">
                <vehicle id="follower" pos="20.70" speed="7.80"/>
                <vehicle id="leader" pos="44.10" speed="13.00"/>
            </lane>
        </edge>
    </timestep>
    <timestep time="6.00">
        <edge id="beg">
            <lane id="beg_0">
                <vehicle id="follower" pos="31.10" speed="10.40"/>
                <vehicle id="leader" pos="59.70" speed="15.60"/>
            </lane>
        </edge>
    </timestep>
    <timestep time="7.00">
        <edge id="beg">
            <lane id="beg_0">
                <vehicle id="follower" pos="44.10" speed="13.00"/>
                <vehicle id="leader" pos="77.90" speed="18.20"/>
            </lane>
        </edge>
    </timestep>
    <timestep time="8.00">
        <edge id="beg">
            <lane id="beg_0">
                <vehicle id="follower" pos="59.70" speed="15.60"/>
                <vehicle id="leader" pos="97.90" speed="20.00"/>
            </lane>
        </edge>
    </timestep>
    <timestep time="9.00">
        <edge id="beg">
            <lane id="beg_0">
                <vehicle id="follower" pos="77.90" speed="18.20"/>
                <vehicle id="leader" pos="117.90" speed="20.00"/>
            </lane>
        </edge>
    </timestep>
    <timestep time="10.00">
        <edge id="beg">
            <lane id="beg_0">
                <vehicle id="follower" pos="98.70" speed="20.80"/>
                <vehicle id="leader" pos="137.90" speed="20.00"/>
            </lane>
        </edge>
    </timestep>
    <timestep time="11.00">
        <edge id="beg">
            <lane id="beg_0">
                <vehicle id="follower" pos="122.10" speed="23.40"/>
                <vehicle id="leader" pos="157.90" speed="20.00"/>
            </lane>
        </edge>
    </timestep>
    <timestep time="12.00">
        <edge id="beg">
            <lane id="beg_0">
                <vehicle id="follower" pos="145.97" speed="23.87"/>
                <vehicle id="leader" pos="177.90" speed="20.00"/>
            </lane>
        </edge>
    </timestep>
    <timestep time="13.00">
        <edge id="beg">
            <lane id="beg_0">
                <vehicle id="follower" pos="169.16" speed="23.19"/>
                <vehicle id="leader" pos="197.90" speed="20.00"/>
            </lane>
        </edge>
    </timestep>
    <timestep time="14.00">
        <edge id="beg">
            <lane id="beg_0">
                <vehicle id="follower" pos="191.79" speed="22.62"/>
                <vehicle id="leader" pos="217.90" speed="20.00"/>
            </lane>
        </edge>
    </timestep>
    <timestep time="15.00">
        <edge id="beg">
            <lane id="beg_0">
                <vehicle id="follower" pos="213.93" speed="22.14"/>
                <vehicle id="leader" pos="237.90" speed="20.00"/>
            </lane>
        </edge>
    </timestep>
    <timestep time="16.00">
        <edge id="beg">
            <lane id="beg_0">
                <vehicle id="follower" pos="235.68" speed="21.75"/>
                <vehicle id="leader" pos="257.90" speed="20.00"/>
            </lane>
        </edge>
    </timestep>
    <timestep time="17.00">
        <edge id="beg">
            <lane id="beg_0">
                <vehicle id="follower" pos="257.09" speed="21.42"/>
                <vehicle id="leader" pos="277.90" speed="20.00"/>
            </lane>
        </edge>
    </timestep>
    <timestep time="18.00">
        <edge id="beg">
            <lane id="beg_0">
                <vehicle id="follower" pos="278.24" speed="21.14"/>
                <vehicle id="leader" pos="297.90" speed="20.00"/>
            </lane>
        </edge>
    </timestep>
    <timestep time="19.00">
        <edge id="beg">
            <lane id="beg_0">
                <vehicle id="follower" pos="299.16" speed="20.92"/>
                <vehicle id="leader" pos="317.90" speed="20.00"/>
            </lane>
        </edge>
    </timestep>
    <timestep time="20.00">
        <edge id="beg">
            <lane id="beg_0">
                <vehicle id="follower" pos="319.91" speed="20.74"/>
                <vehicle id="leader" pos="337.90" speed="20.00"/>
            </lane>
        </edge>
    </timestep>
    <timestep time="21.00">
        <edge id="beg">
            <lane id="beg_0">
                <vehicle id="follower" pos="340.50" speed="20.60"/>
                <vehicle id="leader" pos="357.90" speed="20.00"/>
            </lane>
        </edge>
    </timestep>
    <timestep time="22.00">
        <edge id="beg">
            <lane id="beg_0">
                <vehicle id="follower" pos="360.98" speed="20.48"/>
                <vehicle id="leader" pos="377.90" speed="20.00"/>
            </lane>
        </edge>
    </timestep>
    <timestep time="23.00">
        <edge id="beg">
            <lane id="beg_0">
                <vehicle id="follower" pos="381.37" speed="20.38"/>
                <vehicle id="leader" pos="397.90" speed="20.00"/>
            </lane>
        </edge>
    </timestep>
    <timestep time="24.00">
        <edge id="beg">
            <lane id="beg_0">
                <vehicle id="follower" pos="401.67" speed="20.31"/>
                <vehicle id="leader" pos="417.90" speed="20.00"/>
            </lane>
        </edge>
    </timestep>
    <timestep time="25.00">
        <edge id="beg">
            <lane id="beg_0">
                <vehicle id="follower" pos="421.92" speed="20.25"/>
                <vehicle id="leader" pos="437.90" speed="20.00"/>
            </lane>
        </edge>
    </timestep>
    <timestep time="26.00">
        <edge id="beg">
            <lane id="beg_0">
                <vehicle id="follower" pos="442.12" speed="20.20"/>
                <vehicle id="leader" pos="457.90" speed="20.00"/>
            </lane>
        </edge>
    </timestep>
    <timestep time="27.00">
        <edge id="beg">
            <lane id="beg_0">
                <vehicle id="follower" pos="462.28" speed="20.16"/>
                <vehicle id="leader" pos="477.90" speed="20.00"/>
            </lane>
        </edge>
    </timestep>
    <timestep time="28.00">
        <edge id="beg">
            <lane id="beg_0">
                <vehicle id="follower" pos="482.40" speed="20.13"/>
            </lane>
        </edge>
        <edge id="middle">
            <lane id="middle_0">
                <vehicle id="leader" pos="2.65" speed="20.00"/>
            </lane>
        </edge>
    </timestep>
    <timestep time="29.00">
        <edge id="middle">
            <lane id="middle_0">
                <vehicle id="follower" pos="7.25" speed="20.10"/>
                <vehicle id="leader" pos="22.65" speed="20.00"/>
            </lane>
        </edge>
    </timestep>
    <timestep time="30.00">
        <edge id="middle">
            <lane id="middle_0">
                <vehicle id="follower" pos="27.33" speed="20.08"/>
                <vehicle id="leader" pos="42.65" speed="20.00"/>
            </lane>
        </edge>
    </timestep>
    <timestep time="31.00">
        <edge id="middle">
            <lane id="middle_0">
                <vehicle id="follower" pos="47.40" speed="20.06"/>
                <vehicle id="leader" pos="62.65" speed="20.00"/>
            </lane>
        </edge>
    </timestep>
    <timestep time="32.00">
        <edge id="middle">
            <lane id="middle_0">
                <vehicle id="follower" pos="67.45" speed="20.05"/>
                <vehicle id="leader" pos="82.65" speed="20.00"/>
            </lane>
        </edge>
    </timestep>
    <timestep time="33.00">
        <edge id="middle">
            <lane id="middle_0">
                <vehicle id="follower" pos="87.49" speed="20.04"/>
                <vehicle id="leader" pos="102.65" speed="20.00"/>
            </lane>
        </edge>
    </timestep>
    <timestep time="34.00">
        <edge id="middle">
            <lane id="middle_0">
                <vehicle id="follower" pos="107.52" speed="20.03"/>
                <vehicle id="leader" pos="122.65" speed="20.00"/>
            </lane>
        </edge>
    </timestep>
    <timestep time="35.00">
        <edge id="middle">
            <lane id="middle_0">
                <vehicle id="follower" pos="127.55" speed="20.03"/>
                <vehicle id="leader" pos="142.65" speed="20.00"/>
            </lane>
        </edge>
    </timestep>
    <timestep time="36.00">
        <edge id="middle">
            <lane id="middle_0">
                <vehicle id="follower" pos="147.57" speed="20.02"/>
                <vehicle id="leader" pos="162.65" speed="20.00"/>
            </lane>
        </edge>
    </timestep>
    <timestep time="37.00">
        <edge id="middle">
            <lane id="middle_0">
                <vehicle id="follower" pos="167.58" speed="20.02"/>
                <vehicle id="leader" pos="178.85" speed="16.20"/>
            </lane>
        </edge>
    </timestep>
    <timestep time="38.00">
        <edge id="middle">
            <lane id="middle_0">
                <vehicle id="follower" pos="183.33" speed="15.74"/>
                <vehicle id="leader" pos="190.55" speed="11.70"/>
            </lane>
        </edge>
    </timestep>
    <timestep time="39.00">
        <edge id="middle">
            <lane id="middle_0">
                <vehicle id="leader" pos="197.74" speed="7.20"/>
            </lane>
        </edge>
    </timestep>
    <timestep time="40.00">
        <edge id="middle">
            <lane id="middle_0">
                <vehicle id="leader" pos="200.44" speed="2.70"/>
            </lane>
        </edge>
    </timestep>
    <timestep time="41.00">
        <edge id="middle">
            <lane id="middle_0">
                <vehicle id="leader" pos="200.44" speed="0.00"/>
            </lane>
        </edge>
    </timestep>
    <timestep time="42.00">
        <edge id="middle">
            <lane id="middle_0">
                <vehicle id="leader" pos="200.44" speed="0.00"/>
            </lane>
        </edge>
    </timestep>
    <timestep time="43.00">
        <edge id="middle">
            <lane id="middle_0">
                <vehicle id="leader" pos="200.44" speed="0.00"/>
            </lane>
        </edge>
    </timestep>
    <timestep time="44.00">
        <edge id="middle">
            <lane id="middle_0">
                <vehicle id="leader" pos="200.44" speed="0.00"/>
            </lane>
        </edge>
    </timestep>
    <timestep time="45.00">
        <edge id="middle">
            <lane id="middle_0">
                <vehicle id="leader" pos="200.44" speed="0.00"/>
            </lane>
        </edge>
    </timestep>
    <timestep time="46.00">
        <edge id="middle">
            <lane id="middle_0">
                <vehicle id="leader" pos="200.44" speed="0.00"/>
            </lane>
        </edge>
    </timestep>
    <timestep time="47.00">
        <edge id="middle">
            <lane id="middle_0">
                <vehicle id="leader" pos="200.44" speed="0.00"/>
            </lane>
        </edge>
    </timestep>
    <timestep time="48.00">
        <edge id="middle">
            <lane id="middle_0">
                <vehicle id="leader" pos="203.04" speed="2.60"/>
            </lane>
        </edge>
    </timestep>
    <timestep time="49.00">
        <edge id="middle">
            <lane id="middle_0">
                <vehicle id="leader" pos="208.24" speed="5.20"/>
            </lane>
        </edge>
    </timestep>
    <timestep time="50.00">
        <edge id="middle">
            <lane id="middle_0">
                <vehicle id="leader" pos="216.04" speed="7.80"/>
            </lane>
        </edge>
    </timestep>
    <timestep time="51.00">
        <edge id="middle">
            <lane id="middle_0">
                <vehicle id="leader" pos="226.44" speed="10.40"/>
            </lane>
        </edge>
    </timestep>
    <timestep time="52.00">
        <edge id="middle">
            <lane id="middle_0">
                <vehicle id="leader" pos="239.44" speed="13.00"/>
            </lane>
        </edge>
    </timestep>
    <timestep time="53.00">
        <edge id="middle">
            <lane id="middle_0">
                <vehicle id="leader" pos="255.04" speed="15.60"/>
            </lane>
        </edge>
    </timestep>
    <timestep time="54.00">
        <edge id="middle">
            <lane id="middle_0">
                <vehicle id="leader" pos="273.24" speed="18.20"/>
            </lane>
        </edge>
    </timestep>
    <timestep time="55.00">
        <edge id="middle">
            <lane id="middle_0">
                <vehicle id="leader" pos="293.24" speed="20.00"/>
            </lane>
        </edge>
    </timestep>
    <timestep time="56.00">
        <edge id="middle">
            <lane id="middle_0">
                <vehicle id="leader" pos="313.24" speed="20.00"/>
            </lane>
        </edge>
    </timestep>
    <timestep time="57.00">
        <edge id="middle">
            <lane id="middle_0">
                <vehicle id="leader" pos="333.24" speed="20.00"/>
            </lane>
        </edge>
    </timestep>
    <timestep time="58.00">
        <edge id="middle">
            <lane id="middle_0">
                <vehicle id="leader" pos="353.24" speed="20.00"/>
            </lane>
        </edge>
    </timestep>
    <timestep time="59.00">
        <edge id="middle">
            <lane id="middle_0">
                <vehicle id="leader" pos="373.24" speed="20.00"/>
            </lane>
        </edge>
    </timestep>
    <timestep time="60.00">
        <edge id="middle">
            <lane id="middle_0">
                <vehicle id="leader" pos="393.24" speed="20.00"/>
            </lane>
        </edge>
    </timestep>
    <timestep time="61.00">
        <edge id="middle">
            <lane id="middle_0">
                <vehicle id="leader" pos="413.24" speed="20.00"/>
            </lane>
        </edge>
    </timestep>
    <timestep time="62.00">
        <edge id="middle">
            <lane id="middle_0">
                <vehicle id="leader" pos="433.24" speed="20.00"/>
            </lane>
        </edge>
    </timestep>
    <timestep time="63.00">
        <edge id="middle">
            <lane id="middle_0">
                <vehicle id="leader" pos="453.24" speed="20.00"/>
            </lane>
        </edge>
    </timestep>
    <timestep time="64.00">
        <edge id="middle">
            <lane id="middle_0">
                <vehicle id="leader" pos="473.24" speed="20.00"/>
            </lane>
        </edge>
    </timestep>
    <timestep time="65.00">
        <edge id="middle">
            <lane id="middle_0">
                <vehicle id="leader" pos="493.24" speed="20.00"/>
            </lane>
        </edge>
    </timestep>
    <timestep time="66.00">
        <edge id="middle">
            <lane id="middle_0">
                <vehicle id="leader" pos="513.24" speed="20.00"/>
            </lane>
        </edge>
    </timestep>
    <timestep time="67.00">
        <edge id="middle">
            <lane id="middle_0">
                <vehicle id="leader" pos="533.24" speed="20.00"/>
            </lane>
        </edge>
    </timestep>
    <timestep time="68.00">
        <edge id="middle">
            <lane id="middle_0">
                <vehicle id="leader" pos="553.24" speed="20.00"/>
            </lane>
        </edge>
    </timestep>
    <timestep time="69.00">
        <edge id="middle">
            <lane id="middle_0">
                <vehicle id="leader" pos="573.24" speed="20.00"/>
            </lane>
        </edge>
    </timestep>
    <timestep time="70.00">
        <edge id="middle">
            <lane id="middle_0">
                <vehicle id="leader" pos="593.24" speed="20.00"/>
            </lane>
        </edge>
    </timestep>
    <timestep time="71.00">
        <edge id="middle">
            <lane id="middle_0">
                <vehicle id="leader" pos="613.24" speed="20.00"/>
            </lane>
        </edge>
    </timestep>
    <timestep time="72.00">
        <edge id="middle">
            <lane id="middle_0">
                <vehicle id="leader" pos="633.24" speed="20.00"/>
            </lane>
        </edge>
    </timestep>
    <timestep time="73.00">
        <edge id="middle">
            <lane id="middle_0">
                <vehicle id="leader" pos="653.24" speed="20.00"/>
            </lane>
        </edge>
    </timestep>
    <timestep time="74.00">
        <edge id="middle">
            <lane id="middle_0">
                <vehicle id="leader" pos="673.24" speed="20.00"/>
            </lane>
        </edge>
    </timestep>
    <timestep time="75.00">
        <edge id="middle">
            <lane id="middle_0">
                <vehicle id="leader" pos="693.24" speed="20.00"/>
            </lane>
        </edge>
    </timestep>
    <timestep time="76.00">
        <edge id="middle">
            <lane id="middle_0">
                <vehicle id="leader" pos="713.24" speed="20.00"/>
            </lane>
        </edge>
    </timestep>
    <timestep time="77.00">
        <edge id="middle">
            <lane id="middle_0">
                <vehicle id="leader" pos="733.24" speed="20.00"/>
            </lane>
        </edge>
    </timestep>
    <timestep time="78.00">
        <edge id="middle">
            <lane id="middle_0">
                <vehicle id="leader" pos="753.24" speed="20.00"/>
            </lane>
        </edge>
    </timestep>
    <timestep time="79.00">
        <edge id="middle">
            <lane id="middle_0">
                <vehicle id="leader" pos="773.24" speed="20.00"/>
            </lane>
        </edge>
    </timestep>
    <timestep time="80.00">
        <edge id="middle">
            <lane id="middle_0">
                <vehicle id="leader" pos="793.24" speed="20.00"/>
            </lane>
        </edge>
    </timestep>
    <timestep time="81.00">
        <edge id="middle">
            <lane id="middle_0">
                <vehicle id="leader" pos="813.24" speed="20.00"/>
            </lane>
        </edge>
    </timestep>
    <timestep time="82.00">
        <edge id="middle">
            <lane id="middle_0">
                <vehicle id="leader" pos="833.24" speed="20.00"/>
            </lane>
        </edge>
    </timestep>
    <timestep time="83.00">
        <edge id="middle">
            <lane id="middle_0">
                <vehicle id="leader" pos="853.24" speed="20.00"/>
            </lane>
        </edge>
    </timestep>
    <timestep time="84.00">
        <edge id="middle">
            <lane id="middle_0">
                <vehicle id="leader" pos="873.24" speed="20.00"/>
            </lane>
        </edge>
    </timestep>
    <timestep time="85.00">
        <edge id="middle">
            <lane id="middle_0">
                <vehicle id="leader" pos="893.24" speed="20.00"/>
            </lane>
        </edge>
    </timestep>
    <timestep time="86.00">
        <edge id="middle">
            <lane id="middle_0">
                <vehicle id="leader" pos="913.24" speed="20.00"/>
            </lane>
        </edge>
    </timestep>
    <timestep time="87.00">
        <edge id="middle">
            <lane id="middle_0">
                <vehicle id="leader" pos="933.24" speed="20.00"/>
            </lane>
        </edge>
    </timestep>
    <timestep time="88.00">
        <edge id="middle">
            <lane id="middle_0">
                <vehicle id="leader" pos="953.24" speed="20.00"/>
            </lane>
        </edge>
    </timestep>
    <timestep time="89.00">
        <edge id="middle">
            <lane id="middle_0">
                <vehicle id="leader" pos="973.24" speed="20.00"/>
            </lane>
        </edge>
    </timestep>
    <timestep time="90.00"/>
</netstate>
