<?xml version="1.0"?>

<!-- generated on 07/21/10 12:30:35 by SUMO sumo Version dev-SVN-r8163
<configuration>

    <input>
        <net-file value="three_split.net.xml"/>
        <additional-files value="input_routes.rou.xml,input_additional.add.xml"/>
    </input>

    <output>
        <tripinfo-output value="tripinfos.xml"/>
    </output>

    <report>
        <no-duration-log value="true"/>
        <no-step-log value="true"/>
    </report>

</configuration>
-->

<tripinfos>
    <tripinfo id="emitter_0.00_0" depart="0.00" departLane="beg_0" departPos="100.00" departSpeed="0.00" departDelay="0.00" arrival="74.00" arrivalLane="rend_0" arrivalPos="19.59" arrivalSpeed="27.80" duration="74.00" routeLength="1900.59" waitSteps="0" rerouteNo="0" devices="" vtype="KRAUSS_DEFAULT" vaporized=""/>
    <tripinfo id="emitter_1.00_1" depart="6.00" departLane="beg_0" departPos="100.00" departSpeed="0.00" departDelay="5.00" arrival="197.00" arrivalLane="rend_0" arrivalPos="0.54" arrivalSpeed="10.00" duration="191.00" routeLength="1881.54" waitSteps="0" rerouteNo="0" devices="" vtype="KRAUSS_DEFAULT2" vaporized=""/>
    <tripinfo id="emitter_2.00_2" depart="9.00" departLane="beg_0" departPos="100.00" departSpeed="0.00" departDelay="7.00" arrival="200.00" arrivalLane="rend_0" arrivalPos="0.54" arrivalSpeed="10.00" duration="191.00" routeLength="1881.54" waitSteps="0" rerouteNo="0" devices="" vtype="KRAUSS_DEFAULT2" vaporized=""/>
    <tripinfo id="emitter_3.00_3" depart="12.00" departLane="beg_0" departPos="100.00" departSpeed="0.00" departDelay="9.00" arrival="203.00" arrivalLane="rend_0" arrivalPos="0.54" arrivalSpeed="10.00" duration="191.00" routeLength="1881.54" waitSteps="0" rerouteNo="0" devices="" vtype="KRAUSS_DEFAULT2" vaporized=""/>
    <tripinfo id="emitter_4.00_4" depart="15.00" departLane="beg_0" departPos="100.00" departSpeed="0.00" departDelay="11.00" arrival="206.00" arrivalLane="rend_0" arrivalPos="0.54" arrivalSpeed="10.00" duration="191.00" routeLength="1881.54" waitSteps="0" rerouteNo="0" devices="" vtype="KRAUSS_DEFAULT2" vaporized=""/>
    <tripinfo id="emitter_5.00_5" depart="18.00" departLane="beg_0" departPos="100.00" departSpeed="0.00" departDelay="13.00" arrival="209.00" arrivalLane="rend_0" arrivalPos="0.54" arrivalSpeed="10.00" duration="191.00" routeLength="1881.54" waitSteps="0" rerouteNo="0" devices="" vtype="KRAUSS_DEFAULT2" vaporized=""/>
    <tripinfo id="emitter_6.00_6" depart="21.00" departLane="beg_0" departPos="100.00" departSpeed="0.00" departDelay="15.00" arrival="212.00" arrivalLane="rend_0" arrivalPos="0.54" arrivalSpeed="10.00" duration="191.00" routeLength="1881.54" waitSteps="0" rerouteNo="0" devices="" vtype="KRAUSS_DEFAULT2" vaporized=""/>
    <tripinfo id="emitter_7.00_7" depart="24.00" departLane="beg_0" departPos="100.00" departSpeed="0.00" departDelay="17.00" arrival="215.00" arrivalLane="rend_0" arrivalPos="0.54" arrivalSpeed="10.00" duration="191.00" routeLength="1881.54" waitSteps="0" rerouteNo="0" devices="" vtype="KRAUSS_DEFAULT2" vaporized=""/>
    <tripinfo id="emitter_8.00_8" depart="27.00" departLane="beg_0" departPos="100.00" departSpeed="0.00" departDelay="19.00" arrival="217.00" arrivalLane="rend_0" arrivalPos="12.14" arrivalSpeed="14.37" duration="190.00" routeLength="1893.14" waitSteps="0" rerouteNo="0" devices="" vtype="KRAUSS_DEFAULT" vaporized=""/>
    <tripinfo id="emitter_9.00_9" depart="32.00" departLane="beg_0" departPos="100.00" departSpeed="0.00" departDelay="23.00" arrival="218.00" arrivalLane="rend_0" arrivalPos="7.14" arrivalSpeed="14.37" duration="186.00" routeLength="1888.14" waitSteps="0" rerouteNo="0" devices="" vtype="KRAUSS_DEFAULT" vaporized=""/>
</tripinfos>
