<?xml version="1.0" encoding="UTF-8"?>

<!-- generated on 05/02/13 14:01:06 by SUMO dfrouter Version 0.17.0
<?xml version="1.0" encoding="UTF-8"?>

<configuration xmlns:xsi="http://www.w3.org/2001/XMLSchema-instance" xsi:noNamespaceSchemaLocation="http://sumo-sim.org/xsd/dfrouterConfiguration.xsd">

    <input>
        <net-file value="input_net.net.xml"/>
        <detector-files value="input_detectors.det.xml"/>
    </input>

    <output>
        <routes-output value="routes.rou.xml"/>
    </output>

    <processing>
        <all-end-follower value="true"/>
    </processing>

</configuration>
-->

<routes>

    <route id="beg_to_end" edges="beg middle end"/>
    <route id="beg_to_LtoL2c" edges="beg 1toL L LtoL2c"/>
    <route id="beg_to_LtoL2b" edges="beg 1toL L LtoL2b"/>
    <route id="beg_to_LtoL2a" edges="beg 1toL L LtoL2a"/>
    <route id="beg_to_RtoR2a" edges="beg 1toR R RtoR2a"/>
    <route id="beg_to_RtoR2b" edges="beg 1toR R RtoR2b"/>
    <route id="beg_to_RtoR2c" edges="beg 1toR R RtoR2c"/>

</routes>
