<?xml version="1.0" encoding="UTF-8"?>

<!-- generated on 03/05/14 13:06:20 by SUMO dfrouter Version dev-SVN-r15814
<?xml version="1.0" encoding="UTF-8"?>

<configuration xmlns:xsi="http://www.w3.org/2001/XMLSchema-instance" xsi:noNamespaceSchemaLocation="http://sumo-sim.org/xsd/dfrouterConfiguration.xsd">

    <input>
        <net-file value="input_messstrecke.net.xml"/>
        <detector-files value="input_messstrecke.det.xml"/>
        <measure-files value="input_flows.txt"/>
    </input>

    <output>
        <routes-output value="routes.rou.xml"/>
        <emitters-output value="emitters.add.xml"/>
        <vtype value="true"/>
    </output>

    <report>
        <xml-validation value="never"/>
    </report>

</configuration>
-->

<additional xmlns:xsi="http://www.w3.org/2001/XMLSchema-instance" xsi:noNamespaceSchemaLocation="http://sumo-sim.org/xsd/additional_file.xsd">
    <routeDistribution id="1">
        <route refId="33_to_18" probability="0.02"/>
        <route refId="33_to_35" probability="0.75"/>
        <route refId="33_to_19" probability="0.22"/>
        <route refId="33_to_20" probability="0.75"/>
    </routeDistribution>
    <vehicle id="emitter_1_25200000" type="PKW" depart="25200.00" departLane="0" departPos="10.00" departSpeed="15.56" route="33_to_20"/>
    <vehicle id="emitter_1_25208571" type="PKW" depart="25208.57" departLane="0" departPos="10.00" departSpeed="15.56" route="33_to_20"/>
    <vehicle id="emitter_1_25217142" type="PKW" depart="25217.14" departLane="0" departPos="10.00" departSpeed="15.56" route="33_to_35"/>
    <vehicle id="emitter_1_25225714" type="PKW" depart="25225.71" departLane="0" departPos="10.00" departSpeed="15.56" route="33_to_19"/>
    <vehicle id="emitter_1_25234285" type="PKW" depart="25234.29" departLane="0" departPos="10.00" departSpeed="15.56" route="33_to_20"/>
    <vehicle id="emitter_1_25242857" type="PKW" depart="25242.86" departLane="0" departPos="10.00" departSpeed="15.56" route="33_to_35"/>
    <vehicle id="emitter_1_25251428" type="PKW" depart="25251.43" departLane="0" departPos="10.00" departSpeed="15.56" route="33_to_20"/>
    <vehicle id="emitter_1_25260000" type="PKW" depart="25260.00" departLane="0" departPos="10.00" departSpeed="13.61" route="33_to_35"/>
    <vehicle id="emitter_1_25280000" type="PKW" depart="25280.00" departLane="0" departPos="10.00" departSpeed="13.61" route="33_to_19"/>
    <vehicle id="emitter_1_25300000" type="PKW" depart="25300.00" departLane="0" departPos="10.00" departSpeed="13.61" route="33_to_20"/>
    <vehicle id="emitter_1_25380000" type="PKW" depart="25380.00" departLane="0" departPos="10.00" departSpeed="16.11" route="33_to_18"/>
    <vehicle id="emitter_1_25387500" type="PKW" depart="25387.50" departLane="0" departPos="10.00" departSpeed="16.11" route="33_to_20"/>
    <vehicle id="emitter_1_25395000" type="PKW" depart="25395.00" departLane="0" departPos="10.00" departSpeed="16.11" route="33_to_19"/>
    <vehicle id="emitter_1_25402500" type="PKW" depart="25402.50" departLane="0" departPos="10.00" departSpeed="16.11" route="33_to_19"/>
    <vehicle id="emitter_1_25410000" type="LKW" depart="25410.00" departLane="0" departPos="10.00" departSpeed="15.00" route="33_to_19"/>
    <vehicle id="emitter_1_25417500" type="PKW" depart="25417.50" departLane="0" departPos="10.00" departSpeed="16.11" route="33_to_35"/>
    <vehicle id="emitter_1_25425000" type="PKW" depart="25425.00" departLane="0" departPos="10.00" departSpeed="16.11" route="33_to_35"/>
    <vehicle id="emitter_1_25432500" type="PKW" depart="25432.50" departLane="0" departPos="10.00" departSpeed="16.11" route="33_to_20"/>
    <vehicle id="emitter_1_25440000" type="PKW" depart="25440.00" departLane="0" departPos="10.00" departSpeed="15.28" route="33_to_35"/>
    <vehicle id="emitter_1_25445454" type="PKW" depart="25445.45" departLane="0" departPos="10.00" departSpeed="15.28" route="33_to_20"/>
    <vehicle id="emitter_1_25450909" type="PKW" depart="25450.91" departLane="0" departPos="10.00" departSpeed="15.28" route="33_to_35"/>
    <vehicle id="emitter_1_25456363" type="PKW" depart="25456.36" departLane="0" departPos="10.00" departSpeed="15.28" route="33_to_19"/>
    <vehicle id="emitter_1_25461818" type="PKW" depart="25461.82" departLane="0" departPos="10.00" departSpeed="15.28" route="33_to_35"/>
    <vehicle id="emitter_1_25467272" type="PKW" depart="25467.27" departLane="0" departPos="10.00" departSpeed="15.28" route="33_to_20"/>
    <vehicle id="emitter_1_25472727" type="PKW" depart="25472.73" departLane="0" departPos="10.00" departSpeed="15.28" route="33_to_20"/>
    <vehicle id="emitter_1_25478181" type="PKW" depart="25478.18" departLane="0" departPos="10.00" departSpeed="15.28" route="33_to_20"/>
    <vehicle id="emitter_1_25483636" type="PKW" depart="25483.64" departLane="0" departPos="10.00" departSpeed="15.28" route="33_to_20"/>
    <vehicle id="emitter_1_25489090" type="PKW" depart="25489.09" departLane="0" departPos="10.00" departSpeed="15.28" route="33_to_35"/>
    <vehicle id="emitter_1_25494545" type="PKW" depart="25494.55" departLane="0" departPos="10.00" departSpeed="15.28" route="33_to_19"/>
    <vehicle id="emitter_1_25500000" type="PKW" depart="25500.00" departLane="0" departPos="10.00" departSpeed="14.72" route="33_to_35"/>
    <vehicle id="emitter_1_25512000" type="PKW" depart="25512.00" departLane="0" departPos="10.00" departSpeed="14.72" route="33_to_35"/>
    <vehicle id="emitter_1_25524000" type="PKW" depart="25524.00" departLane="0" departPos="10.00" departSpeed="14.72" route="33_to_35"/>
    <vehicle id="emitter_1_25536000" type="PKW" depart="25536.00" departLane="0" departPos="10.00" departSpeed="14.72" route="33_to_20"/>
    <vehicle id="emitter_1_25548000" type="PKW" depart="25548.00" departLane="0" departPos="10.00" departSpeed="14.72" route="33_to_35"/>
    <vehicle id="emitter_1_25560000" type="PKW" depart="25560.00" departLane="0" departPos="10.00" departSpeed="14.72" route="33_to_20"/>
    <vehicle id="emitter_1_25567500" type="PKW" depart="25567.50" departLane="0" departPos="10.00" departSpeed="14.72" route="33_to_35"/>
    <vehicle id="emitter_1_25575000" type="PKW" depart="25575.00" departLane="0" departPos="10.00" departSpeed="14.72" route="33_to_20"/>
    <vehicle id="emitter_1_25582500" type="PKW" depart="25582.50" departLane="0" departPos="10.00" departSpeed="14.72" route="33_to_35"/>
    <vehicle id="emitter_1_25590000" type="PKW" depart="25590.00" departLane="0" departPos="10.00" departSpeed="14.72" route="33_to_35"/>
    <vehicle id="emitter_1_25597500" type="PKW" depart="25597.50" departLane="0" departPos="10.00" departSpeed="14.72" route="33_to_35"/>
    <vehicle id="emitter_1_25605000" type="PKW" depart="25605.00" departLane="0" departPos="10.00" departSpeed="14.72" route="33_to_35"/>
    <vehicle id="emitter_1_25612500" type="PKW" depart="25612.50" departLane="0" departPos="10.00" departSpeed="14.72" route="33_to_20"/>
    <vehicle id="emitter_1_25620000" type="PKW" depart="25620.00" departLane="0" departPos="10.00" departSpeed="13.06" route="33_to_35"/>
    <vehicle id="emitter_1_25630000" type="PKW" depart="25630.00" departLane="0" departPos="10.00" departSpeed="13.06" route="33_to_35"/>
    <vehicle id="emitter_1_25640000" type="PKW" depart="25640.00" departLane="0" departPos="10.00" departSpeed="13.06" route="33_to_35"/>
    <vehicle id="emitter_1_25650000" type="PKW" depart="25650.00" departLane="0" departPos="10.00" departSpeed="13.06" route="33_to_20"/>
    <vehicle id="emitter_1_25660000" type="PKW" depart="25660.00" departLane="0" departPos="10.00" departSpeed="13.06" route="33_to_35"/>
    <vehicle id="emitter_1_25670000" type="PKW" depart="25670.00" departLane="0" departPos="10.00" departSpeed="13.06" route="33_to_20"/>
    <vehicle id="emitter_1_25680000" type="PKW" depart="25680.00" departLane="0" departPos="10.00" departSpeed="15.28" route="33_to_35"/>
    <vehicle id="emitter_1_25710000" type="PKW" depart="25710.00" departLane="0" departPos="10.00" departSpeed="15.28" route="33_to_20"/>
    <vehicle id="emitter_1_25740000" type="PKW" depart="25740.00" departLane="0" departPos="10.00" departSpeed="15.00" route="33_to_20"/>
    <vehicle id="emitter_1_25745000" type="PKW" depart="25745.00" departLane="0" departPos="10.00" departSpeed="15.00" route="33_to_20"/>
    <vehicle id="emitter_1_25750000" type="PKW" depart="25750.00" departLane="0" departPos="10.00" departSpeed="15.00" route="33_to_20"/>
    <vehicle id="emitter_1_25755000" type="PKW" depart="25755.00" departLane="0" departPos="10.00" departSpeed="15.00" route="33_to_20"/>
    <vehicle id="emitter_1_25760000" type="PKW" depart="25760.00" departLane="0" departPos="10.00" departSpeed="15.00" route="33_to_20"/>
    <vehicle id="emitter_1_25765000" type="PKW" depart="25765.00" departLane="0" departPos="10.00" departSpeed="15.00" route="33_to_35"/>
    <vehicle id="emitter_1_25770000" type="PKW" depart="25770.00" departLane="0" departPos="10.00" departSpeed="15.00" route="33_to_19"/>
    <vehicle id="emitter_1_25775000" type="PKW" depart="25775.00" departLane="0" departPos="10.00" departSpeed="15.00" route="33_to_20"/>
    <vehicle id="emitter_1_25780000" type="PKW" depart="25780.00" departLane="0" departPos="10.00" departSpeed="15.00" route="33_to_35"/>
    <vehicle id="emitter_1_25785000" type="PKW" depart="25785.00" departLane="0" departPos="10.00" departSpeed="15.00" route="33_to_20"/>
    <vehicle id="emitter_1_25790000" type="PKW" depart="25790.00" departLane="0" departPos="10.00" departSpeed="15.00" route="33_to_35"/>
    <vehicle id="emitter_1_25795000" type="PKW" depart="25795.00" departLane="0" departPos="10.00" departSpeed="15.00" route="33_to_20"/>
    <vehicle id="emitter_1_25800000" type="PKW" depart="25800.00" departLane="0" departPos="10.00" departSpeed="16.67" route="33_to_35"/>
    <vehicle id="emitter_1_25815000" type="PKW" depart="25815.00" departLane="0" departPos="10.00" departSpeed="16.67" route="33_to_35"/>
    <vehicle id="emitter_1_25830000" type="PKW" depart="25830.00" departLane="0" departPos="10.00" departSpeed="16.67" route="33_to_35"/>
    <vehicle id="emitter_1_25845000" type="PKW" depart="25845.00" departLane="0" departPos="10.00" departSpeed="16.67" route="33_to_19"/>
    <vehicle id="emitter_1_25860000" type="PKW" depart="25860.00" departLane="0" departPos="10.00" departSpeed="17.50" route="33_to_20"/>
    <vehicle id="emitter_1_25875000" type="PKW" depart="25875.00" departLane="0" departPos="10.00" departSpeed="17.50" route="33_to_35"/>
    <vehicle id="emitter_1_25890000" type="PKW" depart="25890.00" departLane="0" departPos="10.00" departSpeed="17.50" route="33_to_35"/>
    <vehicle id="emitter_1_25905000" type="PKW" depart="25905.00" departLane="0" departPos="10.00" departSpeed="17.50" route="33_to_20"/>
    <vehicle id="emitter_1_25920000" type="PKW" depart="25920.00" departLane="0" departPos="10.00" departSpeed="14.44" route="33_to_35"/>
    <vehicle id="emitter_1_25924615" type="PKW" depart="25924.62" departLane="0" departPos="10.00" departSpeed="14.44" route="33_to_35"/>
    <vehicle id="emitter_1_25929230" type="PKW" depart="25929.23" departLane="0" departPos="10.00" departSpeed="14.44" route="33_to_35"/>
    <vehicle id="emitter_1_25933846" type="PKW" depart="25933.85" departLane="0" departPos="10.00" departSpeed="14.44" route="33_to_19"/>
    <vehicle id="emitter_1_25938461" type="PKW" depart="25938.46" departLane="0" departPos="10.00" departSpeed="14.44" route="33_to_35"/>
    <vehicle id="emitter_1_25943076" type="PKW" depart="25943.08" departLane="0" departPos="10.00" departSpeed="14.44" route="33_to_35"/>
    <vehicle id="emitter_1_25947692" type="PKW" depart="25947.69" departLane="0" departPos="10.00" departSpeed="14.44" route="33_to_35"/>
    <vehicle id="emitter_1_25952307" type="LKW" depart="25952.31" departLane="0" departPos="10.00" departSpeed="13.61" route="33_to_35"/>
    <vehicle id="emitter_1_25956923" type="PKW" depart="25956.92" departLane="0" departPos="10.00" departSpeed="14.44" route="33_to_20"/>
    <vehicle id="emitter_1_25961538" type="PKW" depart="25961.54" departLane="0" departPos="10.00" departSpeed="14.44" route="33_to_35"/>
    <vehicle id="emitter_1_25966153" type="PKW" depart="25966.15" departLane="0" departPos="10.00" departSpeed="14.44" route="33_to_35"/>
    <vehicle id="emitter_1_25970769" type="PKW" depart="25970.77" departLane="0" departPos="10.00" departSpeed="14.44" route="33_to_35"/>
    <vehicle id="emitter_1_25975384" type="PKW" depart="25975.38" departLane="0" departPos="10.00" departSpeed="14.44" route="33_to_20"/>
    <vehicle id="emitter_1_25980000" type="PKW" depart="25980.00" departLane="0" departPos="10.00" departSpeed="15.28" route="33_to_35"/>
    <vehicle id="emitter_1_25990000" type="PKW" depart="25990.00" departLane="0" departPos="10.00" departSpeed="15.28" route="33_to_20"/>
    <vehicle id="emitter_1_26000000" type="PKW" depart="26000.00" departLane="0" departPos="10.00" departSpeed="15.28" route="33_to_35"/>
    <vehicle id="emitter_1_26010000" type="PKW" depart="26010.00" departLane="0" departPos="10.00" departSpeed="15.28" route="33_to_19"/>
    <vehicle id="emitter_1_26020000" type="PKW" depart="26020.00" departLane="0" departPos="10.00" departSpeed="15.28" route="33_to_20"/>
    <vehicle id="emitter_1_26030000" type="PKW" depart="26030.00" departLane="0" departPos="10.00" departSpeed="15.28" route="33_to_20"/>
    <vehicle id="emitter_1_26040000" type="PKW" depart="26040.00" departLane="0" departPos="10.00" departSpeed="13.61" route="33_to_35"/>
    <vehicle id="emitter_1_26052000" type="PKW" depart="26052.00" departLane="0" departPos="10.00" departSpeed="13.61" route="33_to_35"/>
    <vehicle id="emitter_1_26064000" type="PKW" depart="26064.00" departLane="0" departPos="10.00" departSpeed="13.61" route="33_to_20"/>
    <vehicle id="emitter_1_26076000" type="PKW" depart="26076.00" departLane="0" departPos="10.00" departSpeed="13.61" route="33_to_35"/>
    <vehicle id="emitter_1_26088000" type="PKW" depart="26088.00" departLane="0" departPos="10.00" departSpeed="13.61" route="33_to_35"/>
    <vehicle id="emitter_1_26100000" type="PKW" depart="26100.00" departLane="0" departPos="10.00" departSpeed="16.11" route="33_to_35"/>
    <vehicle id="emitter_1_26112000" type="PKW" depart="26112.00" departLane="0" departPos="10.00" departSpeed="16.11" route="33_to_20"/>
    <vehicle id="emitter_1_26124000" type="PKW" depart="26124.00" departLane="0" departPos="10.00" departSpeed="16.11" route="33_to_20"/>
    <vehicle id="emitter_1_26136000" type="PKW" depart="26136.00" departLane="0" departPos="10.00" departSpeed="16.11" route="33_to_20"/>
    <vehicle id="emitter_1_26148000" type="PKW" depart="26148.00" departLane="0" departPos="10.00" departSpeed="16.11" route="33_to_19"/>
    <vehicle id="emitter_1_26160000" type="PKW" depart="26160.00" departLane="0" departPos="10.00" departSpeed="14.17" route="33_to_35"/>
    <vehicle id="emitter_1_26166666" type="PKW" depart="26166.67" departLane="0" departPos="10.00" departSpeed="14.17" route="33_to_20"/>
    <vehicle id="emitter_1_26173333" type="PKW" depart="26173.33" departLane="0" departPos="10.00" departSpeed="14.17" route="33_to_19"/>
    <vehicle id="emitter_1_26180000" type="PKW" depart="26180.00" departLane="0" departPos="10.00" departSpeed="14.17" route="33_to_20"/>
    <vehicle id="emitter_1_26186666" type="PKW" depart="26186.67" departLane="0" departPos="10.00" departSpeed="14.17" route="33_to_20"/>
    <vehicle id="emitter_1_26193333" type="PKW" depart="26193.33" departLane="0" departPos="10.00" departSpeed="14.17" route="33_to_20"/>
    <vehicle id="emitter_1_26200000" type="PKW" depart="26200.00" departLane="0" departPos="10.00" departSpeed="14.17" route="33_to_35"/>
    <vehicle id="emitter_1_26206666" type="PKW" depart="26206.67" departLane="0" departPos="10.00" departSpeed="14.17" route="33_to_35"/>
    <vehicle id="emitter_1_26213333" type="PKW" depart="26213.33" departLane="0" departPos="10.00" departSpeed="14.17" route="33_to_35"/>
    <vehicle id="emitter_1_26220000" type="PKW" depart="26220.00" departLane="0" departPos="10.00" departSpeed="16.11" route="33_to_20"/>
    <vehicle id="emitter_1_26235000" type="PKW" depart="26235.00" departLane="0" departPos="10.00" departSpeed="16.11" route="33_to_35"/>
    <vehicle id="emitter_1_26250000" type="PKW" depart="26250.00" departLane="0" departPos="10.00" departSpeed="16.11" route="33_to_19"/>
    <vehicle id="emitter_1_26265000" type="PKW" depart="26265.00" departLane="0" departPos="10.00" departSpeed="16.11" route="33_to_20"/>
    <vehicle id="emitter_1_26280000" type="PKW" depart="26280.00" departLane="0" departPos="10.00" departSpeed="13.61" route="33_to_20"/>
    <vehicle id="emitter_1_26286666" type="PKW" depart="26286.67" departLane="0" departPos="10.00" departSpeed="13.61" route="33_to_35"/>
    <vehicle id="emitter_1_26293333" type="PKW" depart="26293.33" departLane="0" departPos="10.00" departSpeed="13.61" route="33_to_20"/>
    <vehicle id="emitter_1_26300000" type="PKW" depart="26300.00" departLane="0" departPos="10.00" departSpeed="13.61" route="33_to_35"/>
    <vehicle id="emitter_1_26306666" type="PKW" depart="26306.67" departLane="0" departPos="10.00" departSpeed="13.61" route="33_to_20"/>
    <vehicle id="emitter_1_26313333" type="PKW" depart="26313.33" departLane="0" departPos="10.00" departSpeed="13.61" route="33_to_35"/>
    <vehicle id="emitter_1_26320000" type="PKW" depart="26320.00" departLane="0" departPos="10.00" departSpeed="13.61" route="33_to_20"/>
    <vehicle id="emitter_1_26326666" type="PKW" depart="26326.67" departLane="0" departPos="10.00" departSpeed="13.61" route="33_to_35"/>
    <vehicle id="emitter_1_26333333" type="PKW" depart="26333.33" departLane="0" departPos="10.00" departSpeed="13.61" route="33_to_19"/>
    <vehicle id="emitter_1_26340000" type="PKW" depart="26340.00" departLane="0" departPos="10.00" departSpeed="15.28" route="33_to_35"/>
    <vehicle id="emitter_1_26355000" type="PKW" depart="26355.00" departLane="0" departPos="10.00" departSpeed="15.28" route="33_to_35"/>
    <vehicle id="emitter_1_26370000" type="PKW" depart="26370.00" departLane="0" departPos="10.00" departSpeed="15.28" route="33_to_20"/>
    <vehicle id="emitter_1_26385000" type="PKW" depart="26385.00" departLane="0" departPos="10.00" departSpeed="15.28" route="33_to_20"/>
    <vehicle id="emitter_1_26400000" type="PKW" depart="26400.00" departLane="0" departPos="10.00" departSpeed="14.72" route="33_to_20"/>
    <vehicle id="emitter_1_26407500" type="PKW" depart="26407.50" departLane="0" departPos="10.00" departSpeed="14.72" route="33_to_35"/>
    <vehicle id="emitter_1_26415000" type="PKW" depart="26415.00" departLane="0" departPos="10.00" departSpeed="14.72" route="33_to_20"/>
    <vehicle id="emitter_1_26422500" type="PKW" depart="26422.50" departLane="0" departPos="10.00" departSpeed="14.72" route="33_to_35"/>
    <vehicle id="emitter_1_26430000" type="PKW" depart="26430.00" departLane="0" departPos="10.00" departSpeed="14.72" route="33_to_20"/>
    <vehicle id="emitter_1_26437500" type="PKW" depart="26437.50" departLane="0" departPos="10.00" departSpeed="14.72" route="33_to_35"/>
    <vehicle id="emitter_1_26445000" type="PKW" depart="26445.00" departLane="0" departPos="10.00" departSpeed="14.72" route="33_to_20"/>
    <vehicle id="emitter_1_26452500" type="PKW" depart="26452.50" departLane="0" departPos="10.00" departSpeed="14.72" route="33_to_35"/>
    <vehicle id="emitter_1_26460000" type="PKW" depart="26460.00" departLane="0" departPos="10.00" departSpeed="15.28" route="33_to_35"/>
    <vehicle id="emitter_1_26470000" type="PKW" depart="26470.00" departLane="0" departPos="10.00" departSpeed="15.28" route="33_to_20"/>
    <vehicle id="emitter_1_26480000" type="PKW" depart="26480.00" departLane="0" departPos="10.00" departSpeed="15.28" route="33_to_20"/>
    <vehicle id="emitter_1_26490000" type="PKW" depart="26490.00" departLane="0" departPos="10.00" departSpeed="15.28" route="33_to_20"/>
    <vehicle id="emitter_1_26500000" type="PKW" depart="26500.00" departLane="0" departPos="10.00" departSpeed="15.28" route="33_to_35"/>
    <vehicle id="emitter_1_26510000" type="PKW" depart="26510.00" departLane="0" departPos="10.00" departSpeed="15.28" route="33_to_20"/>
    <vehicle id="emitter_1_26520000" type="PKW" depart="26520.00" departLane="0" departPos="10.00" departSpeed="16.67" route="33_to_20"/>
    <vehicle id="emitter_1_26525454" type="PKW" depart="26525.45" departLane="0" departPos="10.00" departSpeed="16.67" route="33_to_20"/>
    <vehicle id="emitter_1_26530909" type="PKW" depart="26530.91" departLane="0" departPos="10.00" departSpeed="16.67" route="33_to_20"/>
    <vehicle id="emitter_1_26536363" type="PKW" depart="26536.36" departLane="0" departPos="10.00" departSpeed="16.67" route="33_to_19"/>
    <vehicle id="emitter_1_26541818" type="PKW" depart="26541.82" departLane="0" departPos="10.00" departSpeed="16.67" route="33_to_35"/>
    <vehicle id="emitter_1_26547272" type="PKW" depart="26547.27" departLane="0" departPos="10.00" departSpeed="16.67" route="33_to_20"/>
    <vehicle id="emitter_1_26552727" type="PKW" depart="26552.73" departLane="0" departPos="10.00" departSpeed="16.67" route="33_to_20"/>
    <vehicle id="emitter_1_26558181" type="PKW" depart="26558.18" departLane="0" departPos="10.00" departSpeed="16.67" route="33_to_19"/>
    <vehicle id="emitter_1_26563636" type="PKW" depart="26563.64" departLane="0" departPos="10.00" departSpeed="16.67" route="33_to_20"/>
    <vehicle id="emitter_1_26569090" type="PKW" depart="26569.09" departLane="0" departPos="10.00" departSpeed="16.67" route="33_to_35"/>
    <vehicle id="emitter_1_26574545" type="PKW" depart="26574.55" departLane="0" departPos="10.00" departSpeed="16.67" route="33_to_35"/>
    <vehicle id="emitter_1_26580000" type="PKW" depart="26580.00" departLane="0" departPos="10.00" departSpeed="14.72" route="33_to_20"/>
    <vehicle id="emitter_1_26595000" type="PKW" depart="26595.00" departLane="0" departPos="10.00" departSpeed="14.72" route="33_to_19"/>
    <vehicle id="emitter_1_26610000" type="PKW" depart="26610.00" departLane="0" departPos="10.00" departSpeed="14.72" route="33_to_35"/>
    <vehicle id="emitter_1_26625000" type="PKW" depart="26625.00" departLane="0" departPos="10.00" departSpeed="14.72" route="33_to_18"/>
    <vehicle id="emitter_1_26640000" type="PKW" depart="26640.00" departLane="0" departPos="10.00" departSpeed="14.17" route="33_to_20"/>
    <vehicle id="emitter_1_26648571" type="PKW" depart="26648.57" departLane="0" departPos="10.00" departSpeed="14.17" route="33_to_20"/>
    <vehicle id="emitter_1_26657142" type="PKW" depart="26657.14" departLane="0" departPos="10.00" departSpeed="14.17" route="33_to_18"/>
    <vehicle id="emitter_1_26665714" type="PKW" depart="26665.71" departLane="0" departPos="10.00" departSpeed="14.17" route="33_to_19"/>
    <vehicle id="emitter_1_26674285" type="PKW" depart="26674.29" departLane="0" departPos="10.00" departSpeed="14.17" route="33_to_20"/>
    <vehicle id="emitter_1_26682857" type="PKW" depart="26682.86" departLane="0" departPos="10.00" departSpeed="14.17" route="33_to_35"/>
    <vehicle id="emitter_1_26691428" type="PKW" depart="26691.43" departLane="0" departPos="10.00" departSpeed="14.17" route="33_to_35"/>
    <vehicle id="emitter_1_26700000" type="PKW" depart="26700.00" departLane="0" departPos="10.00" departSpeed="14.72" route="33_to_20"/>
    <vehicle id="emitter_1_26712000" type="PKW" depart="26712.00" departLane="0" departPos="10.00" departSpeed="14.72" route="33_to_20"/>
    <vehicle id="emitter_1_26724000" type="PKW" depart="26724.00" departLane="0" departPos="10.00" departSpeed="14.72" route="33_to_35"/>
    <vehicle id="emitter_1_26736000" type="PKW" depart="26736.00" departLane="0" departPos="10.00" departSpeed="14.72" route="33_to_20"/>
    <vehicle id="emitter_1_26748000" type="PKW" depart="26748.00" departLane="0" departPos="10.00" departSpeed="14.72" route="33_to_19"/>
    <vehicle id="emitter_1_26760000" type="PKW" depart="26760.00" departLane="0" departPos="10.00" departSpeed="15.56" route="33_to_20"/>
    <vehicle id="emitter_1_26820000" type="PKW" depart="26820.00" departLane="0" departPos="10.00" departSpeed="15.00" route="33_to_20"/>
    <vehicle id="emitter_1_26832000" type="PKW" depart="26832.00" departLane="0" departPos="10.00" departSpeed="15.00" route="33_to_19"/>
    <vehicle id="emitter_1_26844000" type="PKW" depart="26844.00" departLane="0" departPos="10.00" departSpeed="15.00" route="33_to_20"/>
    <vehicle id="emitter_1_26856000" type="PKW" depart="26856.00" departLane="0" departPos="10.00" departSpeed="15.00" route="33_to_35"/>
    <vehicle id="emitter_1_26868000" type="PKW" depart="26868.00" departLane="0" departPos="10.00" departSpeed="15.00" route="33_to_35"/>
    <vehicle id="emitter_1_26880000" type="PKW" depart="26880.00" departLane="0" departPos="10.00" departSpeed="14.44" route="33_to_35"/>
    <vehicle id="emitter_1_26910000" type="PKW" depart="26910.00" departLane="0" departPos="10.00" departSpeed="14.44" route="33_to_19"/>
    <vehicle id="emitter_1_26940000" type="PKW" depart="26940.00" departLane="0" departPos="10.00" departSpeed="15.00" route="33_to_35"/>
    <vehicle id="emitter_1_26947500" type="PKW" depart="26947.50" departLane="0" departPos="10.00" departSpeed="15.00" route="33_to_20"/>
    <vehicle id="emitter_1_26955000" type="PKW" depart="26955.00" departLane="0" departPos="10.00" departSpeed="15.00" route="33_to_19"/>
    <vehicle id="emitter_1_26962500" type="PKW" depart="26962.50" departLane="0" departPos="10.00" departSpeed="15.00" route="33_to_35"/>
    <vehicle id="emitter_1_26970000" type="PKW" depart="26970.00" departLane="0" departPos="10.00" departSpeed="15.00" route="33_to_20"/>
    <vehicle id="emitter_1_26977500" type="PKW" depart="26977.50" departLane="0" departPos="10.00" departSpeed="15.00" route="33_to_35"/>
    <vehicle id="emitter_1_26985000" type="PKW" depart="26985.00" departLane="0" departPos="10.00" departSpeed="15.00" route="33_to_20"/>
    <vehicle id="emitter_1_26992500" type="PKW" depart="26992.50" departLane="0" departPos="10.00" departSpeed="15.00" route="33_to_35"/>
    <vehicle id="emitter_1_27000000" type="PKW" depart="27000.00" departLane="0" departPos="10.00" departSpeed="16.39" route="33_to_20"/>
    <vehicle id="emitter_1_27015000" type="PKW" depart="27015.00" departLane="0" departPos="10.00" departSpeed="16.39" route="33_to_35"/>
    <vehicle id="emitter_1_27030000" type="PKW" depart="27030.00" departLane="0" departPos="10.00" departSpeed="16.39" route="33_to_35"/>
    <vehicle id="emitter_1_27045000" type="PKW" depart="27045.00" departLane="0" departPos="10.00" departSpeed="16.39" route="33_to_35"/>
    <vehicle id="emitter_1_27060000" type="PKW" depart="27060.00" departLane="0" departPos="10.00" departSpeed="13.89" route="33_to_35"/>
    <vehicle id="emitter_1_27065454" type="PKW" depart="27065.45" departLane="0" departPos="10.00" departSpeed="13.89" route="33_to_35"/>
    <vehicle id="emitter_1_27070909" type="PKW" depart="27070.91" departLane="0" departPos="10.00" departSpeed="13.89" route="33_to_20"/>
    <vehicle id="emitter_1_27076363" type="PKW" depart="27076.36" departLane="0" departPos="10.00" departSpeed="13.89" route="33_to_35"/>
    <vehicle id="emitter_1_27081818" type="PKW" depart="27081.82" departLane="0" departPos="10.00" departSpeed="13.89" route="33_to_35"/>
    <vehicle id="emitter_1_27087272" type="PKW" depart="27087.27" departLane="0" departPos="10.00" departSpeed="13.89" route="33_to_20"/>
    <vehicle id="emitter_1_27092727" type="PKW" depart="27092.73" departLane="0" departPos="10.00" departSpeed="13.89" route="33_to_19"/>
    <vehicle id="emitter_1_27098181" type="PKW" depart="27098.18" departLane="0" departPos="10.00" departSpeed="13.89" route="33_to_35"/>
    <vehicle id="emitter_1_27103636" type="PKW" depart="27103.64" departLane="0" departPos="10.00" departSpeed="13.89" route="33_to_35"/>
    <vehicle id="emitter_1_27109090" type="PKW" depart="27109.09" departLane="0" departPos="10.00" departSpeed="13.89" route="33_to_20"/>
    <vehicle id="emitter_1_27114545" type="PKW" depart="27114.55" departLane="0" departPos="10.00" departSpeed="13.89" route="33_to_35"/>
    <vehicle id="emitter_1_27120000" type="PKW" depart="27120.00" departLane="0" departPos="10.00" departSpeed="14.44" route="33_to_20"/>
    <vehicle id="emitter_1_27130000" type="PKW" depart="27130.00" departLane="0" departPos="10.00" departSpeed="14.44" route="33_to_19"/>
    <vehicle id="emitter_1_27140000" type="PKW" depart="27140.00" departLane="0" departPos="10.00" departSpeed="14.44" route="33_to_20"/>
    <vehicle id="emitter_1_27150000" type="PKW" depart="27150.00" departLane="0" departPos="10.00" departSpeed="14.44" route="33_to_35"/>
    <vehicle id="emitter_1_27160000" type="PKW" depart="27160.00" departLane="0" departPos="10.00" departSpeed="14.44" route="33_to_35"/>
    <vehicle id="emitter_1_27170000" type="PKW" depart="27170.00" departLane="0" departPos="10.00" departSpeed="14.44" route="33_to_19"/>
    <vehicle id="emitter_1_27180000" type="PKW" depart="27180.00" departLane="0" departPos="10.00" departSpeed="14.72" route="33_to_35"/>
    <vehicle id="emitter_1_27192000" type="PKW" depart="27192.00" departLane="0" departPos="10.00" departSpeed="14.72" route="33_to_20"/>
    <vehicle id="emitter_1_27204000" type="PKW" depart="27204.00" departLane="0" departPos="10.00" departSpeed="14.72" route="33_to_20"/>
    <vehicle id="emitter_1_27216000" type="PKW" depart="27216.00" departLane="0" departPos="10.00" departSpeed="14.72" route="33_to_20"/>
    <vehicle id="emitter_1_27228000" type="PKW" depart="27228.00" departLane="0" departPos="10.00" departSpeed="14.72" route="33_to_35"/>
    <vehicle id="emitter_1_27240000" type="PKW" depart="27240.00" departLane="0" departPos="10.00" departSpeed="15.83" route="33_to_19"/>