<?xml version="1.0" encoding="UTF-8"?>

<!-- generated on 2026-04-09T16:38:01.893926+01:00 by Eclipse SUMO sumo v1_26_0+1034-8d7c6592743
This data file and the accompanying materials
are made available under the terms of the Eclipse Public License v2.0
which accompanies this distribution, and is available at
http://www.eclipse.org/legal/epl-v20.html
This file may also be made available under the following Secondary
Licenses when the conditions for such availability set forth in the Eclipse
Public License 2.0 are satisfied: GNU General Public License, version 2
or later which is available at
https://www.gnu.org/licenses/old-licenses/gpl-2.0-standalone.html
SPDX-License-Identifier: EPL-2.0 OR GPL-2.0-or-later
<sumoConfiguration xmlns:xsi="http://www.w3.org/2001/XMLSchema-instance" xsi:noNamespaceSchemaLocation="http://sumo.dlr.de/xsd/sumoConfiguration.xsd">

    <input>
        <net-file value="net.net.xml"/>
        <route-files value="input_routes.rou.xml"/>
        <additional-files value="input_additional.add.xml"/>
    </input>

    <output>
        <write-license value="true"/>
        <tripinfo-output value="tripinfos.xml"/>
        <railsignal-block-output value="railsignal_blocks.xml"/>
        <stop-output value="stopinfos.xml"/>
    </output>

    <processing>
        <time-to-teleport.railsignal-deadlock value="200"/>
        <default.speeddev value="0"/>
    </processing>

    <report>
        <xml-validation value="never"/>
        <duration-log.disable value="true"/>
        <no-step-log value="true"/>
    </report>

    <mesoscopic>
        <mesosim value="true"/>
        <meso-junction-control value="true"/>
    </mesoscopic>

</sumoConfiguration>
-->

<tripinfos xmlns:xsi="http://www.w3.org/2001/XMLSchema-instance" xsi:noNamespaceSchemaLocation="http://sumo.dlr.de/xsd/tripinfo_file.xsd">
    <tripinfo id="t1" depart="30.00" departLane="d_0" departPos="0.00" departSpeed="13.89" departDelay="0.00" arrival="94.00" arrivalLane="b_0" arrivalPos="295.96" arrivalSpeed="13.89" duration="64.00" routeLength="739.21" waitingTime="0.00" waitingCount="0" stopTime="10.00" timeLoss="10.00" rerouteNo="0" devices="tripinfo_t1 routing_t1 person_t1" vType="splitTrain" speedFactor="1.00" vaporized=""/>
    <personinfo id="p0" depart="0.00" type="DEFAULT_PEDTYPE" speedFactor="1.00" duration="100.00" waitingTime="24.90" timeLoss="0.00" traveltime="75.10">
        <stop duration="0.00" arrival="0.00" arrivalPos="208.37" actType="waiting"/>
        <ride waitingTime="24.90" vehicle="t0" depart="24.90" arrival="100.00" arrivalPos="391.72" duration="75.10" routeLength="1477.67" timeLoss="0.00"/>
    </personinfo>
    <tripinfo id="t0" depart="0.00" departLane="a_0" departPos="0.00" departSpeed="13.89" departDelay="0.00" arrival="100.00" arrivalLane="c_0" arrivalPos="391.72" arrivalSpeed="5.74" duration="100.00" routeLength="1100.01" waitingTime="0.00" waitingCount="0" stopTime="20.00" timeLoss="20.00" rerouteNo="0" devices="tripinfo_t0 routing_t0 person_t0" vType="splitTrain" speedFactor="1.00" vaporized=""/>
    <personinfo id="p1" depart="0.00" type="DEFAULT_PEDTYPE" speedFactor="1.00" duration="-1" waitingTime="63.15" timeLoss="-1" traveltime="-1">
        <stop duration="0.00" arrival="0.00" arrivalPos="172.81" actType="waiting"/>
        <ride waitingTime="56.15" vehicle="t1" depart="56.15" arrival="94.00" arrivalPos="295.96" duration="37.85" routeLength="851.40" timeLoss="0.00"/>
        <ride waitingTime="7.00" vehicle="NULL" depart="-1" arrival="-1" arrivalPos="-1" duration="-1" routeLength="-1" timeLoss="-1"/>
    </personinfo>
</tripinfos>
