<?xml version="1.0" encoding="UTF-8"?>

<!-- generated on 2024-02-26 12:09:55 by Eclipse SUMO sumo Version v1_19_0+1013-694ada1
This data file and the accompanying materials
are made available under the terms of the Eclipse Public License v2.0
which accompanies this distribution, and is available at
http://www.eclipse.org/legal/epl-v20.html
This file may also be made available under the following Secondary
Licenses when the conditions for such availability set forth in the Eclipse
Public License 2.0 are satisfied: GNU General Public License, version 2
or later which is available at
https://www.gnu.org/licenses/old-licenses/gpl-2.0-standalone.html
SPDX-License-Identifier: EPL-2.0 OR GPL-2.0-or-later
<configuration xmlns:xsi="http://www.w3.org/2001/XMLSchema-instance" xsi:noNamespaceSchemaLocation="http://sumo.dlr.de/xsd/sumoConfiguration.xsd">

    <input>
        <net-file value="net.net.xml"/>
        <route-files value="input_routes.rou.xml"/>
        <additional-files value="input_additional.add.xml"/>
    </input>

    <output>
        <write-license value="true"/>
        <tripinfo-output value="tripinfos.xml"/>
        <railsignal-block-output value="railsignal_blocks.xml"/>
        <stop-output value="stopinfos.xml"/>
    </output>

    <processing>
        <default.speeddev value="0"/>
    </processing>

    <report>
        <xml-validation value="never"/>
        <duration-log.disable value="true"/>
        <no-step-log value="true"/>
    </report>

</configuration>
-->

<tripinfos xmlns:xsi="http://www.w3.org/2001/XMLSchema-instance" xsi:noNamespaceSchemaLocation="http://sumo.dlr.de/xsd/tripinfo_file.xsd">
    <tripinfo id="t1" depart="30.00" departLane="d_0" departPos="50.10" departSpeed="0.00" departDelay="0.00" arrival="165.00" arrivalLane="b_0" arrivalPos="95.00" arrivalSpeed="0.00" duration="135.00" routeLength="488.15" waitingTime="1.00" waitingCount="1" stopTime="40.00" timeLoss="59.86" rerouteNo="0" devices="tripinfo_t1 routing_t1 person_t1" vType="splitTrain" speedFactor="1.00" vaporized=""/>
    <personinfo id="p0" depart="0.00" type="DEFAULT_PEDTYPE" speedFactor="1.00">
        <stop duration="0.00" arrival="0.00" arrivalPos="208.37" actType="waiting"/>
        <ride waitingTime="55.00" vehicle="t0" depart="55.00" arrival="234.00" arrivalPos="338.22" duration="179.00" routeLength="788.14" timeLoss="63.26"/>
    </personinfo>
    <personinfo id="p1" depart="0.00" type="DEFAULT_PEDTYPE" speedFactor="1.00">
        <stop duration="0.00" arrival="0.00" arrivalPos="172.81" actType="waiting"/>
        <ride waitingTime="81.00" vehicle="t1" depart="81.00" arrival="165.00" arrivalPos="95.00" duration="84.00" routeLength="315.44" timeLoss="31.29"/>
        <ride waitingTime="1.00" vehicle="t0" depart="166.00" arrival="234.00" arrivalPos="338.22" duration="68.00" routeLength="494.34" timeLoss="32.41"/>
    </personinfo>
    <tripinfo id="t0" depart="0.00" departLane="a_0" departPos="50.10" departSpeed="0.00" departDelay="0.00" arrival="264.00" arrivalLane="c_0" arrivalPos="391.72" arrivalSpeed="5.25" duration="264.00" routeLength="1049.91" waitingTime="0.00" waitingCount="0" stopTime="79.00" timeLoss="109.11" rerouteNo="0" devices="tripinfo_t0 routing_t0 person_t0" vType="splitTrain@t0" speedFactor="1.00" vaporized=""/>
</tripinfos>
