<?xml version="1.0"?>

<!-- generated on 08/03/08 11:38:47 by SUMO sumo Version dev-SVN-r5913
<configuration>

   <input>
      <net-file>net.net.xml</net-file>
      <route-files>routes.rou.xml</route-files>
   </input>

   <output>
      <netstate-dump>netstate_dump.xml</netstate-dump>
   </output>

   <processing>
      <no-step-log>true</no-step-log>
   </processing>

   <traffic_control_interface_(traci)_server>
      <remote-port>8858</remote-port>
      <penetration>0.8</penetration>
   </traffic_control_interface_(traci)_server>

</configuration>
-->

<sumo-netstate>
   <timestep time="0">
      <edge id="e_m0">
         <lane id="e_m0_0">
            <vehicle id="veh0" pos="0.00" speed="0.00"/>
         </lane>
         <lane id="e_m0_1"/>
         <lane id="e_m0_2"/>
      </edge>
      <edge id="e_o1">
         <lane id="e_o1_0">
            <vehicle id="veh2" pos="0.00" speed="0.00"/>
         </lane>
         <lane id="e_o1_1"/>
         <lane id="e_o1_2"/>
      </edge>
   </timestep>
   <timestep time="1">
      <edge id="e_m0">
         <lane id="e_m0_0">
            <vehicle id="veh0" pos="0.78" speed="0.78"/>
         </lane>
         <lane id="e_m0_1"/>
         <lane id="e_m0_2"/>
      </edge>
      <edge id="e_o1">
         <lane id="e_o1_0">
            <vehicle id="veh2" pos="0.52" speed="0.52"/>
         </lane>
         <lane id="e_o1_1"/>
         <lane id="e_o1_2"/>
      </edge>
   </timestep>
   <timestep time="2">
      <edge id="e_m0">
         <lane id="e_m0_0">
            <vehicle id="veh0" pos="2.12" speed="1.34"/>
         </lane>
         <lane id="e_m0_1"/>
         <lane id="e_m0_2"/>
      </edge>
      <edge id="e_o1">
         <lane id="e_o1_0">
            <vehicle id="veh2" pos="1.64" speed="1.12"/>
         </lane>
         <lane id="e_o1_1"/>
         <lane id="e_o1_2"/>
      </edge>
   </timestep>
   <timestep time="3">
      <edge id="e_m0">
         <lane id="e_m0_0">
            <vehicle id="veh0" pos="3.96" speed="1.84"/>
         </lane>
         <lane id="e_m0_1"/>
         <lane id="e_m0_2"/>
      </edge>
      <edge id="e_o1">
         <lane id="e_o1_0">
            <vehicle id="veh2" pos="3.53" speed="1.89"/>
         </lane>
         <lane id="e_o1_1"/>
         <lane id="e_o1_2"/>
      </edge>
   </timestep>
   <timestep time="4">
      <edge id="e_m0">
         <lane id="e_m0_0">
            <vehicle id="veh0" pos="6.37" speed="2.41"/>
         </lane>
         <lane id="e_m0_1"/>
         <lane id="e_m0_2"/>
      </edge>
      <edge id="e_o1">
         <lane id="e_o1_0">
            <vehicle id="veh2" pos="6.10" speed="2.57"/>
         </lane>
         <lane id="e_o1_1"/>
         <lane id="e_o1_2"/>
      </edge>
   </timestep>
   <timestep time="5">
      <edge id="e_m0">
         <lane id="e_m0_0">
            <vehicle id="veh0" pos="9.55" speed="3.18"/>
         </lane>
         <lane id="e_m0_1"/>
         <lane id="e_m0_2"/>
      </edge>
      <edge id="e_o1">
         <lane id="e_o1_0">
            <vehicle id="veh2_0" pos="0.00" speed="0.00"/>
            <vehicle id="veh2" pos="9.16" speed="3.06"/>
         </lane>
         <lane id="e_o1_1"/>
         <lane id="e_o1_2"/>
      </edge>
   </timestep>
   <timestep time="6">
      <edge id="e_m0">
         <lane id="e_m0_0">
            <vehicle id="veh0" pos="13.32" speed="3.77"/>
         </lane>
         <lane id="e_m0_1"/>
         <lane id="e_m0_2"/>
      </edge>
      <edge id="e_o1">
         <lane id="e_o1_0">
            <vehicle id="veh2_0" pos="0.53" speed="0.53"/>
            <vehicle id="veh2" pos="12.81" speed="3.65"/>
         </lane>
         <lane id="e_o1_1"/>
         <lane id="e_o1_2"/>
      </edge>
   </timestep>
   <timestep time="7">
      <edge id="e_m0">
         <lane id="e_m0_0">
            <vehicle id="veh0" pos="17.83" speed="4.51"/>
         </lane>
         <lane id="e_m0_1"/>
         <lane id="e_m0_2"/>
      </edge>
      <edge id="e_o1">
         <lane id="e_o1_0">
            <vehicle id="veh2_0" pos="1.64" speed="1.11"/>
            <vehicle id="veh2" pos="17.12" speed="4.31"/>
         </lane>
         <lane id="e_o1_1"/>
         <lane id="e_o1_2"/>
      </edge>
   </timestep>
   <timestep time="8">
      <edge id="e_m0">
         <lane id="e_m0_0">
            <vehicle id="veh0" pos="22.83" speed="5.00"/>
         </lane>
         <lane id="e_m0_1"/>
         <lane id="e_m0_2"/>
      </edge>
      <edge id="e_o1">
         <lane id="e_o1_0">
            <vehicle id="veh2_0" pos="3.19" speed="1.55"/>
            <vehicle id="veh2" pos="22.05" speed="4.94"/>
         </lane>
         <lane id="e_o1_1"/>
         <lane id="e_o1_2"/>
      </edge>
   </timestep>
   <timestep time="9">
      <edge id="e_m0">
         <lane id="e_m0_0">
            <vehicle id="veh0" pos="28.46" speed="5.63"/>
         </lane>
         <lane id="e_m0_1"/>
         <lane id="e_m0_2"/>
      </edge>
      <edge id="e_o1">
         <lane id="e_o1_0">
            <vehicle id="veh2_0" pos="5.51" speed="2.32"/>
            <vehicle id="veh2" pos="27.55" speed="5.49"/>
         </lane>
         <lane id="e_o1_1"/>
         <lane id="e_o1_2"/>
      </edge>
   </timestep>
   <timestep time="10">
      <edge id="e_m0">
         <lane id="e_m0_0">
            <vehicle id="veh0" pos="34.52" speed="6.07"/>
         </lane>
         <lane id="e_m0_1"/>
         <lane id="e_m0_2"/>
      </edge>
      <edge id="e_o1">
         <lane id="e_o1_0">
            <vehicle id="veh2_1" pos="0.00" speed="0.00"/>
            <vehicle id="veh2_0" pos="8.36" speed="2.85"/>
            <vehicle id="veh2" pos="33.44" speed="5.89"/>
         </lane>
         <lane id="e_o1_1"/>
         <lane id="e_o1_2"/>
      </edge>
   </timestep>
   <timestep time="11">
      <edge id="e_m0">
         <lane id="e_m0_0">
            <vehicle id="veh0" pos="41.24" speed="6.71"/>
         </lane>
         <lane id="e_m0_1"/>
         <lane id="e_m0_2"/>
      </edge>
      <edge id="e_o1">
         <lane id="e_o1_0">
            <vehicle id="veh2_1" pos="0.45" speed="0.45"/>
            <vehicle id="veh2_0" pos="11.82" speed="3.46"/>
            <vehicle id="veh2" pos="39.86" speed="6.42"/>
         </lane>
         <lane id="e_o1_1"/>
         <lane id="e_o1_2"/>
      </edge>
   </timestep>
   <timestep time="12">
      <edge id="e_m0">
         <lane id="e_m0_0">
            <vehicle id="veh0" pos="48.62" speed="7.38"/>
         </lane>
         <lane id="e_m0_1"/>
         <lane id="e_m0_2"/>
      </edge>
      <edge id="e_o1">
         <lane id="e_o1_0">
            <vehicle id="veh2_1" pos="1.68" speed="1.23"/>
            <vehicle id="veh2_0" pos="15.93" speed="4.11"/>
            <vehicle id="veh2" pos="46.74" speed="6.88"/>
         </lane>
         <lane id="e_o1_1"/>
         <lane id="e_o1_2"/>
      </edge>
   </timestep>
   <timestep time="13">
      <edge id="e_m0">
         <lane id="e_m0_0">
            <vehicle id="veh0" pos="56.59" speed="7.98"/>
         </lane>
         <lane id="e_m0_1"/>
         <lane id="e_m0_2"/>
      </edge>
      <edge id="e_o1">
         <lane id="e_o1_0">
            <vehicle id="veh2_1" pos="3.33" speed="1.65"/>
            <vehicle id="veh2_0" pos="20.79" speed="4.85"/>
            <vehicle id="veh2" pos="54.09" speed="7.35"/>
         </lane>
         <lane id="e_o1_1"/>
         <lane id="e_o1_2"/>
      </edge>
   </timestep>
   <timestep time="14">
      <edge id="e_m0">
         <lane id="e_m0_0">
            <vehicle id="veh0" pos="64.94" speed="8.35"/>
         </lane>
         <lane id="e_m0_1"/>
         <lane id="e_m0_2"/>
      </edge>
      <edge id="e_o1">
         <lane id="e_o1_0">
            <vehicle id="veh2_1" pos="5.70" speed="2.38"/>
            <vehicle id="veh2_0" pos="26.34" speed="5.55"/>
            <vehicle id="veh2" pos="62.02" speed="7.92"/>
         </lane>
         <lane id="e_o1_1"/>
         <lane id="e_o1_2"/>
      </edge>
   </timestep>
   <timestep time="15">
      <edge id="e_m0">
         <lane id="e_m0_0">
            <vehicle id="veh0" pos="73.79" speed="8.85"/>
         </lane>
         <lane id="e_m0_1"/>
         <lane id="e_m0_2"/>
      </edge>
      <edge id="e_o1">
         <lane id="e_o1_0">
            <vehicle id="veh2_2" pos="0.00" speed="0.00"/>
            <vehicle id="veh2_1" pos="8.75" speed="3.05"/>
            <vehicle id="veh2_0" pos="32.55" speed="6.21"/>
            <vehicle id="veh2" pos="70.59" speed="8.57"/>
         </lane>
         <lane id="e_o1_1"/>
         <lane id="e_o1_2"/>
      </edge>
   </timestep>
   <timestep time="16">
      <edge id="e_m0">
         <lane id="e_m0_0">
            <vehicle id="veh0" pos="83.10" speed="9.31"/>
         </lane>
         <lane id="e_m0_1"/>
         <lane id="e_m0_2"/>
      </edge>
      <edge id="e_o1">
         <lane id="e_o1_0">
            <vehicle id="veh2_2" pos="0.70" speed="0.70"/>
            <vehicle id="veh2_1" pos="12.26" speed="3.51"/>
            <vehicle id="veh2_0" pos="39.45" speed="6.90"/>
            <vehicle id="veh2" pos="79.64" speed="9.04"/>
         </lane>
         <lane id="e_o1_1"/>
         <lane id="e_o1_2"/>
      </edge>
   </timestep>
   <timestep time="17">
      <edge id="e_m0">
         <lane id="e_m0_0">
            <vehicle id="veh0" pos="92.99" speed="9.89"/>
         </lane>
         <lane id="e_m0_1"/>
         <lane id="e_m0_2"/>
      </edge>
      <edge id="e_o1">
         <lane id="e_o1_0">
            <vehicle id="veh2_2" pos="1.97" speed="1.26"/>
            <vehicle id="veh2_1" pos="16.26" speed="4.01"/>
            <vehicle id="veh2_0" pos="46.74" speed="7.29"/>
            <vehicle id="veh2" pos="89.05" speed="9.41"/>
         </lane>
         <lane id="e_o1_1"/>
         <lane id="e_o1_2"/>
      </edge>
   </timestep>
   <timestep time="18">
      <edge id="e_m0">
         <lane id="e_m0_0">
            <vehicle id="veh0" pos="103.51" speed="10.52"/>
         </lane>
         <lane id="e_m0_1"/>
         <lane id="e_m0_2"/>
      </edge>
      <edge id="e_o1">
         <lane id="e_o1_0">
            <vehicle id="veh2_2" pos="3.83" speed="1.86"/>
            <vehicle id="veh2_1" pos="20.81" speed="4.54"/>
            <vehicle id="veh2_0" pos="54.69" speed="7.95"/>
            <vehicle id="veh2" pos="98.82" speed="9.78"/>
         </lane>
         <lane id="e_o1_1"/>
         <lane id="e_o1_2"/>
      </edge>
   </timestep>
   <timestep time="19">
      <edge id="e_m0">
         <lane id="e_m0_0">
            <vehicle id="veh0" pos="114.52" speed="11.01"/>
         </lane>
         <lane id="e_m0_1"/>
         <lane id="e_m0_2"/>
      </edge>
      <edge id="e_o1">
         <lane id="e_o1_0">
            <vehicle id="veh2_2" pos="6.21" speed="2.39"/>
            <vehicle id="veh2_1" pos="26.05" speed="5.24"/>
            <vehicle id="veh2_0" pos="63.34" speed="8.65"/>
            <vehicle id="veh2" pos="109.19" speed="10.37"/>
         </lane>
         <lane id="e_o1_1"/>
         <lane id="e_o1_2"/>
      </edge>
   </timestep>
   <timestep time="20">
      <edge id="e_m0">
         <lane id="e_m0_0">
            <vehicle id="veh0" pos="126.11" speed="11.58"/>
         </lane>
         <lane id="e_m0_1"/>
         <lane id="e_m0_2"/>
      </edge>
      <edge id="e_o1">
         <lane id="e_o1_0">
            <vehicle id="veh2_2" pos="9.02" speed="2.81"/>
            <vehicle id="veh2_1" pos="32.00" speed="5.95"/>
            <vehicle id="veh2_0" pos="72.63" speed="9.29"/>
            <vehicle id="veh2" pos="119.91" speed="10.72"/>
         </lane>
         <lane id="e_o1_1"/>
         <lane id="e_o1_2"/>
      </edge>
   </timestep>
   <timestep time="21">
      <edge id="e_m0">
         <lane id="e_m0_0">
            <vehicle id="veh0" pos="138.30" speed="12.19"/>
         </lane>
         <lane id="e_m0_1"/>
         <lane id="e_m0_2"/>
      </edge>
      <edge id="e_o1">
         <lane id="e_o1_0">
            <vehicle id="veh2_2" pos="12.47" speed="3.45"/>
            <vehicle id="veh2_1" pos="38.65" speed="6.65"/>
            <vehicle id="veh2_0" pos="82.42" speed="9.79"/>
            <vehicle id="veh2" pos="131.23" speed="11.33"/>
         </lane>
         <lane id="e_o1_1"/>
         <lane id="e_o1_2"/>
      </edge>
   </timestep>
   <timestep time="22">
      <edge id="e_m0">
         <lane id="e_m0_0">
            <vehicle id="veh0" pos="151.06" speed="12.76"/>
         </lane>
         <lane id="e_m0_1"/>
         <lane id="e_m0_2"/>
      </edge>
      <edge id="e_o1">
         <lane id="e_o1_0">
            <vehicle id="veh2_2" pos="16.66" speed="4.19"/>
            <vehicle id="veh2_1" pos="46.00" speed="7.35"/>
            <vehicle id="veh2_0" pos="92.65" speed="10.23"/>
            <vehicle id="veh2" pos="143.11" speed="11.88"/>
         </lane>
         <lane id="e_o1_1"/>
         <lane id="e_o1_2"/>
      </edge>
   </timestep>
   <timestep time="23">
      <edge id="e_m0">
         <lane id="e_m0_0">
            <vehicle id="veh0" pos="164.34" speed="13.29"/>
         </lane>
         <lane id="e_m0_1"/>
         <lane id="e_m0_2"/>
      </edge>
      <edge id="e_o1">
         <lane id="e_o1_0">
            <vehicle id="veh2_2" pos="21.52" speed="4.86"/>
            <vehicle id="veh2_1" pos="53.83" speed="7.82"/>
            <vehicle id="veh2_0" pos="103.42" speed="10.77"/>
            <vehicle id="veh2" pos="155.46" speed="12.34"/>
         </lane>
         <lane id="e_o1_1"/>
         <lane id="e_o1_2"/>
      </edge>
   </timestep>
   <timestep time="24">
      <edge id="e_m0">
         <lane id="e_m0_0">
            <vehicle id="veh0" pos="178.16" speed="13.82"/>
         </lane>
         <lane id="e_m0_1"/>
         <lane id="e_m0_2"/>
      </edge>
      <edge id="e_o1">
         <lane id="e_o1_0">
            <vehicle id="veh2_2" pos="26.94" speed="5.42"/>
            <vehicle id="veh2_1" pos="62.07" speed="8.25"/>
            <vehicle id="veh2_0" pos="114.67" speed="11.25"/>
            <vehicle id="veh2" pos="168.32" speed="12.86"/>
         </lane>
         <lane id="e_o1_1"/>
         <lane id="e_o1_2"/>
      </edge>
   </timestep>
   <timestep time="25">
      <edge id="e_m0">
         <lane id="e_m0_0">
            <vehicle id="veh0" pos="192.34" speed="14.18"/>
         </lane>
         <lane id="e_m0_1"/>
         <lane id="e_m0_2"/>
      </edge>
      <edge id="e_o1">
         <lane id="e_o1_0">
            <vehicle id="veh2_2" pos="32.74" speed="5.80"/>
            <vehicle id="veh2_1" pos="71.01" speed="8.94"/>
            <vehicle id="veh2_0" pos="126.49" speed="11.82"/>
            <vehicle id="veh2" pos="181.80" speed="13.48"/>
         </lane>
         <lane id="e_o1_1"/>
         <lane id="e_o1_2"/>
      </edge>
   </timestep>
   <timestep time="26">
      <edge id="e_m0">
         <lane id="e_m0_0">
            <vehicle id="veh0" pos="206.93" speed="14.59"/>
         </lane>
         <lane id="e_m0_1"/>
         <lane id="e_m0_2"/>
      </edge>
      <edge id="e_o1">
         <lane id="e_o1_0">
            <vehicle id="veh2_2" pos="39.05" speed="6.31"/>
            <vehicle id="veh2_1" pos="80.33" speed="9.32"/>
            <vehicle id="veh2_0" pos="138.81" speed="12.33"/>
            <vehicle id="veh2" pos="195.80" speed="13.99"/>
         </lane>
         <lane id="e_o1_1"/>
         <lane id="e_o1_2"/>
      </edge>
   </timestep>
   <timestep time="27">
      <edge id="e_m0">
         <lane id="e_m0_0">
            <vehicle id="veh0" pos="222.07" speed="15.14"/>
         </lane>
         <lane id="e_m0_1"/>
         <lane id="e_m0_2"/>
      </edge>
      <edge id="e_o1">
         <lane id="e_o1_0">
            <vehicle id="veh2_2" pos="45.92" speed="6.87"/>
            <vehicle id="veh2_1" pos="90.05" speed="9.72"/>
            <vehicle id="veh2_0" pos="151.61" speed="12.80"/>
            <vehicle id="veh2" pos="210.12" speed="14.33"/>
         </lane>
         <lane id="e_o1_1"/>
         <lane id="e_o1_2"/>
      </edge>
   </timestep>
   <timestep time="28">
      <edge id="e_m0">
         <lane id="e_m0_0">
            <vehicle id="veh0" pos="237.69" speed="15.62"/>
         </lane>
         <lane id="e_m0_1"/>
         <lane id="e_m0_2"/>
      </edge>
      <edge id="e_o1">
         <lane id="e_o1_0">
            <vehicle id="veh2_2" pos="53.36" speed="7.45"/>
            <vehicle id="veh2_1" pos="100.34" speed="10.29"/>
            <vehicle id="veh2_0" pos="164.84" speed="13.22"/>
            <vehicle id="veh2" pos="225.05" speed="14.93"/>
         </lane>
         <lane id="e_o1_1"/>
         <lane id="e_o1_2"/>
      </edge>
   </timestep>
   <timestep time="29">
      <edge id="e_m0">
         <lane id="e_m0_0">
            <vehicle id="veh0" pos="253.89" speed="16.20"/>
         </lane>
         <lane id="e_m0_1"/>
         <lane id="e_m0_2"/>
      </edge>
      <edge id="e_o1">
         <lane id="e_o1_0">
            <vehicle id="veh2_2" pos="61.29" speed="7.93"/>
            <vehicle id="veh2_1" pos="111.04" speed="10.71"/>
            <vehicle id="veh2_0" pos="178.62" speed="13.78"/>
            <vehicle id="veh2" pos="240.39" speed="15.34"/>
         </lane>
         <lane id="e_o1_1"/>
         <lane id="e_o1_2"/>
      </edge>
   </timestep>
   <timestep time="30">
      <edge id="e_m0">
         <lane id="e_m0_0">
            <vehicle id="veh0" pos="270.66" speed="16.77"/>
         </lane>
         <lane id="e_m0_1"/>
         <lane id="e_m0_2"/>
      </edge>
      <edge id="e_o1">
         <lane id="e_o1_0">
            <vehicle id="veh2_2" pos="69.79" speed="8.50"/>
            <vehicle id="veh2_1" pos="122.20" speed="11.16"/>
            <vehicle id="veh2_0" pos="192.74" speed="14.12"/>
            <vehicle id="veh2" pos="256.10" speed="15.70"/>
         </lane>
         <lane id="e_o1_1"/>
         <lane id="e_o1_2"/>
      </edge>
   </timestep>
   <timestep time="31">
      <edge id="e_m0">
         <lane id="e_m0_0">
            <vehicle id="veh0" pos="287.86" speed="17.20"/>
         </lane>
         <lane id="e_m0_1"/>
         <lane id="e_m0_2"/>
      </edge>
      <edge id="e_o1">
         <lane id="e_o1_0">
            <vehicle id="veh2_2" pos="78.68" speed="8.89"/>
            <vehicle id="veh2_1" pos="133.92" speed="11.72"/>
            <vehicle id="veh2_0" pos="207.28" speed="14.54"/>
            <vehicle id="veh2" pos="272.29" speed="16.19"/>
         </lane>
         <lane id="e_o1_1"/>
         <lane id="e_o1_2"/>
      </edge>
   </timestep>
</sumo-netstate>
