<?xml version="1.0" encoding="UTF-8"?>

<!-- generated on 2022-02-10 00:06:55 by Eclipse SUMO sumo Version v1_12_0+0426-579bba2
This data file and the accompanying materials
are made available under the terms of the Eclipse Public License v2.0
which accompanies this distribution, and is available at
http://www.eclipse.org/legal/epl-v20.html
This file may also be made available under the following Secondary
Licenses when the conditions for such availability set forth in the Eclipse
Public License 2.0 are satisfied: GNU General Public License, version 2
or later which is available at
https://www.gnu.org/licenses/old-licenses/gpl-2.0-standalone.html
SPDX-License-Identifier: EPL-2.0 OR GPL-2.0-or-later
<configuration xmlns:xsi="http://www.w3.org/2001/XMLSchema-instance" xsi:noNamespaceSchemaLocation="http://sumo.dlr.de/xsd/sumoConfiguration.xsd">

    <input>
        <net-file value="net.net.xml"/>
        <route-files value="input_routes.rou.xml"/>
        <additional-files value="input_additional.add.xml,input_additional2.add.xml"/>
    </input>

    <output>
        <write-license value="true"/>
    </output>

    <processing>
        <default.speeddev value="0"/>
    </processing>

    <report>
        <verbose value="true"/>
        <xml-validation value="never"/>
        <xml-validation.routes value="never"/>
        <duration-log.statistics value="true"/>
        <no-step-log value="true"/>
    </report>

</configuration>
-->

<detector xmlns:xsi="http://www.w3.org/2001/XMLSchema-instance" xsi:noNamespaceSchemaLocation="http://sumo.dlr.de/xsd/det_e2_file.xsd">
   <interval begin="0.00" end="600.00" id="customDet1" sampledSeconds="59.49" nVehEntered="63" nVehLeft="63" nVehSeen="63" meanSpeed="15.46" meanTimeLoss="0.13" meanOccupancy="3.13" maxOccupancy="46.00" meanMaxJamLengthInVehicles="0.00" meanMaxJamLengthInMeters="0.00" maxJamLengthInVehicles="0" maxJamLengthInMeters="0.00" jamLengthInVehiclesSum="0" jamLengthInMetersSum="0.00" meanHaltingDuration="0.00" maxHaltingDuration="0.00" haltingDurationSum="0.00" meanIntervalHaltingDuration="0.00" maxIntervalHaltingDuration="0.00" intervalHaltingDurationSum="0.00" startedHalts="0.00" meanVehicleNumber="0.20" maxVehicleNumber="1" />
   <interval begin="0.00" end="600.00" id="customDet2" sampledSeconds="45.69" nVehEntered="49" nVehLeft="49" nVehSeen="49" meanSpeed="15.66" meanTimeLoss="0.12" meanOccupancy="2.11" maxOccupancy="46.00" meanMaxJamLengthInVehicles="0.00" meanMaxJamLengthInMeters="0.00" maxJamLengthInVehicles="0" maxJamLengthInMeters="0.00" jamLengthInVehiclesSum="0" jamLengthInMetersSum="0.00" meanHaltingDuration="0.00" maxHaltingDuration="0.00" haltingDurationSum="0.00" meanIntervalHaltingDuration="0.00" maxIntervalHaltingDuration="0.00" intervalHaltingDurationSum="0.00" startedHalts="0.00" meanVehicleNumber="0.16" maxVehicleNumber="1" />
   <interval begin="0.00" end="600.00" id="customDet3" sampledSeconds="708.66" nVehEntered="60" nVehLeft="58" nVehSeen="60" meanSpeed="1.10" meanTimeLoss="11.08" meanOccupancy="39.94" maxOccupancy="69.43" meanMaxJamLengthInVehicles="0.99" meanMaxJamLengthInMeters="4.54" maxJamLengthInVehicles="2" maxJamLengthInMeters="9.39" jamLengthInVehiclesSum="596" jamLengthInMetersSum="2724.99" meanHaltingDuration="67.22" maxHaltingDuration="92.00" haltingDurationSum="605.00" meanIntervalHaltingDuration="67.22" maxIntervalHaltingDuration="92.00" intervalHaltingDurationSum="605.00" startedHalts="10.00" meanVehicleNumber="1.27" maxVehicleNumber="2" />
   <interval begin="0.00" end="600.00" id="customDet4" sampledSeconds="577.33" nVehEntered="19" nVehLeft="17" nVehSeen="19" meanSpeed="0.28" meanTimeLoss="29.91" meanOccupancy="31.70" maxOccupancy="68.09" meanMaxJamLengthInVehicles="0.90" meanMaxJamLengthInMeters="4.03" maxJamLengthInVehicles="2" maxJamLengthInMeters="9.36" jamLengthInVehiclesSum="537" jamLengthInMetersSum="2417.64" meanHaltingDuration="60.67" maxHaltingDuration="89.00" haltingDurationSum="546.00" meanIntervalHaltingDuration="60.67" maxIntervalHaltingDuration="89.00" intervalHaltingDurationSum="546.00" startedHalts="9.00" meanVehicleNumber="0.98" maxVehicleNumber="2" />
   <interval begin="600.00" end="1200.00" id="customDet1" sampledSeconds="54.21" nVehEntered="57" nVehLeft="57" nVehSeen="57" meanSpeed="15.30" meanTimeLoss="0.14" meanOccupancy="2.76" maxOccupancy="46.00" meanMaxJamLengthInVehicles="0.00" meanMaxJamLengthInMeters="0.00" maxJamLengthInVehicles="0" maxJamLengthInMeters="0.00" jamLengthInVehiclesSum="0" jamLengthInMetersSum="0.00" meanHaltingDuration="0.00" maxHaltingDuration="0.00" haltingDurationSum="0.00" meanIntervalHaltingDuration="0.00" maxIntervalHaltingDuration="0.00" intervalHaltingDurationSum="0.00" startedHalts="0.00" meanVehicleNumber="0.18" maxVehicleNumber="1" />
   <interval begin="600.00" end="1200.00" id="customDet2" sampledSeconds="39.46" nVehEntered="43" nVehLeft="43" nVehSeen="43" meanSpeed="15.62" meanTimeLoss="0.12" meanOccupancy="2.63" maxOccupancy="46.00" meanMaxJamLengthInVehicles="0.00" meanMaxJamLengthInMeters="0.00" maxJamLengthInVehicles="0" maxJamLengthInMeters="0.00" jamLengthInVehiclesSum="0" jamLengthInMetersSum="0.00" meanHaltingDuration="0.00" maxHaltingDuration="0.00" haltingDurationSum="0.00" meanIntervalHaltingDuration="0.00" maxIntervalHaltingDuration="0.00" intervalHaltingDurationSum="0.00" startedHalts="0.00" meanVehicleNumber="0.14" maxVehicleNumber="1" />
   <interval begin="600.00" end="1200.00" id="customDet3" sampledSeconds="622.28" nVehEntered="54" nVehLeft="56" nVehSeen="56" meanSpeed="1.16" meanTimeLoss="10.39" meanOccupancy="34.21" maxOccupancy="68.52" meanMaxJamLengthInVehicles="0.86" meanMaxJamLengthInMeters="3.84" maxJamLengthInVehicles="2" maxJamLengthInMeters="9.39" jamLengthInVehiclesSum="514" jamLengthInMetersSum="2302.15" meanHaltingDuration="57.60" maxHaltingDuration="95.00" haltingDurationSum="576.00" meanIntervalHaltingDuration="48.70" maxIntervalHaltingDuration="94.00" intervalHaltingDurationSum="487.00" startedHalts="11.00" meanVehicleNumber="1.12" maxVehicleNumber="2" />
   <interval begin="600.00" end="1200.00" id="customDet4" sampledSeconds="511.95" nVehEntered="16" nVehLeft="18" nVehSeen="18" meanSpeed="0.29" meanTimeLoss="27.99" meanOccupancy="28.20" maxOccupancy="68.17" meanMaxJamLengthInVehicles="0.79" meanMaxJamLengthInMeters="3.58" maxJamLengthInVehicles="2" maxJamLengthInMeters="9.64" jamLengthInVehiclesSum="475" jamLengthInMetersSum="2150.79" meanHaltingDuration="62.11" maxHaltingDuration="89.00" haltingDurationSum="559.00" meanIntervalHaltingDuration="53.55" maxIntervalHaltingDuration="88.00" intervalHaltingDurationSum="482.00" startedHalts="7.00" meanVehicleNumber="0.87" maxVehicleNumber="2" />
   <interval begin="1200.00" end="1800.00" id="customDet1" sampledSeconds="59.54" nVehEntered="63" nVehLeft="63" nVehSeen="63" meanSpeed="15.45" meanTimeLoss="0.13" meanOccupancy="2.76" maxOccupancy="46.00" meanMaxJamLengthInVehicles="0.00" meanMaxJamLengthInMeters="0.00" maxJamLengthInVehicles="0" maxJamLengthInMeters="0.00" jamLengthInVehiclesSum="0" jamLengthInMetersSum="0.00" meanHaltingDuration="0.00" maxHaltingDuration="0.00" haltingDurationSum="0.00" meanIntervalHaltingDuration="0.00" maxIntervalHaltingDuration="0.00" intervalHaltingDurationSum="0.00" startedHalts="0.00" meanVehicleNumber="0.20" maxVehicleNumber="1" />
   <interval begin="1200.00" end="1800.00" id="customDet2" sampledSeconds="42.94" nVehEntered="46" nVehLeft="46" nVehSeen="46" meanSpeed="15.64" meanTimeLoss="0.12" meanOccupancy="2.23" maxOccupancy="46.00" meanMaxJamLengthInVehicles="0.00" meanMaxJamLengthInMeters="0.00" maxJamLengthInVehicles="0" maxJamLengthInMeters="0.00" jamLengthInVehiclesSum="0" jamLengthInMetersSum="0.00" meanHaltingDuration="0.00" maxHaltingDuration="0.00" haltingDurationSum="0.00" meanIntervalHaltingDuration="0.00" maxIntervalHaltingDuration="0.00" intervalHaltingDurationSum="0.00" startedHalts="0.00" meanVehicleNumber="0.15" maxVehicleNumber="1" />
   <interval begin="1200.00" end="1800.00" id="customDet3" sampledSeconds="113.97" nVehEntered="40" nVehLeft="40" nVehSeen="40" meanSpeed="4.98" meanTimeLoss="2.06" meanOccupancy="5.58" maxOccupancy="68.09" meanMaxJamLengthInVehicles="0.10" meanMaxJamLengthInMeters="0.36" maxJamLengthInVehicles="2" maxJamLengthInMeters="9.32" jamLengthInVehiclesSum="61" jamLengthInMetersSum="217.75" meanHaltingDuration="21.33" maxHaltingDuration="42.00" haltingDurationSum="64.00" meanIntervalHaltingDuration="21.33" maxIntervalHaltingDuration="42.00" intervalHaltingDurationSum="64.00" startedHalts="3.00" meanVehicleNumber="0.27" maxVehicleNumber="2" />
   <interval begin="1200.00" end="1800.00" id="customDet4" sampledSeconds="23.62" nVehEntered="3" nVehLeft="3" nVehSeen="3" meanSpeed="0.71" meanTimeLoss="7.56" meanOccupancy="0.82" maxOccupancy="44.55" meanMaxJamLengthInVehicles="0.03" meanMaxJamLengthInMeters="0.07" maxJamLengthInVehicles="1" maxJamLengthInMeters="2.21" jamLengthInVehiclesSum="19" jamLengthInMetersSum="40.03" meanHaltingDuration="20.00" maxHaltingDuration="20.00" haltingDurationSum="20.00" meanIntervalHaltingDuration="20.00" maxIntervalHaltingDuration="20.00" intervalHaltingDurationSum="20.00" startedHalts="1.00" meanVehicleNumber="0.04" maxVehicleNumber="1" />
   <interval begin="1800.00" end="2400.00" id="customDet1" sampledSeconds="58.93" nVehEntered="63" nVehLeft="63" nVehSeen="63" meanSpeed="15.61" meanTimeLoss="0.12" meanOccupancy="3.11" maxOccupancy="46.00" meanMaxJamLengthInVehicles="0.00" meanMaxJamLengthInMeters="0.00" maxJamLengthInVehicles="0" maxJamLengthInMeters="0.00" jamLengthInVehiclesSum="0" jamLengthInMetersSum="0.00" meanHaltingDuration="0.00" maxHaltingDuration="0.00" haltingDurationSum="0.00" meanIntervalHaltingDuration="0.00" maxIntervalHaltingDuration="0.00" intervalHaltingDurationSum="0.00" startedHalts="0.00" meanVehicleNumber="0.20" maxVehicleNumber="1" />
   <interval begin="1800.00" end="2400.00" id="customDet2" sampledSeconds="42.13" nVehEntered="45" nVehLeft="45" nVehSeen="45" meanSpeed="15.60" meanTimeLoss="0.12" meanOccupancy="1.98" maxOccupancy="46.00" meanMaxJamLengthInVehicles="0.00" meanMaxJamLengthInMeters="0.00" maxJamLengthInVehicles="0" maxJamLengthInMeters="0.00" jamLengthInVehiclesSum="0" jamLengthInMetersSum="0.00" meanHaltingDuration="0.00" maxHaltingDuration="0.00" haltingDurationSum="0.00" meanIntervalHaltingDuration="0.00" maxIntervalHaltingDuration="0.00" intervalHaltingDurationSum="0.00" startedHalts="0.00" meanVehicleNumber="0.15" maxVehicleNumber="1" />
   <interval begin="1800.00" end="2400.00" id="customDet3" sampledSeconds="524.94" nVehEntered="59" nVehLeft="59" nVehSeen="59" meanSpeed="1.48" meanTimeLoss="8.16" meanOccupancy="27.91" maxOccupancy="68.10" meanMaxJamLengthInVehicles="0.67" meanMaxJamLengthInMeters="2.77" maxJamLengthInVehicles="2" maxJamLengthInMeters="9.55" jamLengthInVehiclesSum="403" jamLengthInMetersSum="1659.24" meanHaltingDuration="45.78" maxHaltingDuration="87.00" haltingDurationSum="412.00" meanIntervalHaltingDuration="45.78" maxIntervalHaltingDuration="87.00" intervalHaltingDurationSum="412.00" startedHalts="9.00" meanVehicleNumber="0.96" maxVehicleNumber="2" />
   <interval begin="1800.00" end="2400.00" id="customDet4" sampledSeconds="346.58" nVehEntered="17" nVehLeft="17" nVehSeen="17" meanSpeed="0.42" meanTimeLoss="19.91" meanOccupancy="17.78" maxOccupancy="68.09" meanMaxJamLengthInVehicles="0.51" meanMaxJamLengthInMeters="2.05" maxJamLengthInVehicles="2" maxJamLengthInMeters="9.33" jamLengthInVehiclesSum="305" jamLengthInMetersSum="1229.58" meanHaltingDuration="39.12" maxHaltingDuration="76.00" haltingDurationSum="313.00" meanIntervalHaltingDuration="39.12" maxIntervalHaltingDuration="76.00" intervalHaltingDurationSum="313.00" startedHalts="8.00" meanVehicleNumber="0.60" maxVehicleNumber="2" />
   <interval begin="2400.00" end="3000.00" id="customDet1" sampledSeconds="54.41" nVehEntered="58" nVehLeft="58" nVehSeen="58" meanSpeed="15.56" meanTimeLoss="0.12" meanOccupancy="2.86" maxOccupancy="46.00" meanMaxJamLengthInVehicles="0.00" meanMaxJamLengthInMeters="0.00" maxJamLengthInVehicles="0" maxJamLengthInMeters="0.00" jamLengthInVehiclesSum="0" jamLengthInMetersSum="0.00" meanHaltingDuration="0.00" maxHaltingDuration="0.00" haltingDurationSum="0.00" meanIntervalHaltingDuration="0.00" maxIntervalHaltingDuration="0.00" intervalHaltingDurationSum="0.00" startedHalts="0.00" meanVehicleNumber="0.19" maxVehicleNumber="1" />
   <interval begin="2400.00" end="3000.00" id="customDet2" sampledSeconds="40.16" nVehEntered="43" nVehLeft="43" nVehSeen="43" meanSpeed="15.63" meanTimeLoss="0.12" meanOccupancy="2.34" maxOccupancy="46.00" meanMaxJamLengthInVehicles="0.00" meanMaxJamLengthInMeters="0.00" maxJamLengthInVehicles="0" maxJamLengthInMeters="0.00" jamLengthInVehiclesSum="0" jamLengthInMetersSum="0.00" meanHaltingDuration="0.00" maxHaltingDuration="0.00" haltingDurationSum="0.00" meanIntervalHaltingDuration="0.00" maxIntervalHaltingDuration="0.00" intervalHaltingDurationSum="0.00" startedHalts="0.00" meanVehicleNumber="0.14" maxVehicleNumber="1" />
   <interval begin="2400.00" end="3000.00" id="customDet3" sampledSeconds="632.03" nVehEntered="56" nVehLeft="55" nVehSeen="56" meanSpeed="1.12" meanTimeLoss="10.58" meanOccupancy="33.68" maxOccupancy="68.10" meanMaxJamLengthInVehicles="0.86" meanMaxJamLengthInMeters="3.59" maxJamLengthInVehicles="2" maxJamLengthInMeters="9.38" jamLengthInVehiclesSum="517" jamLengthInMetersSum="2152.51" meanHaltingDuration="51.78" maxHaltingDuration="94.00" haltingDurationSum="466.00" meanIntervalHaltingDuration="51.78" maxIntervalHaltingDuration="94.00" intervalHaltingDurationSum="466.00" startedHalts="12.00" meanVehicleNumber="1.14" maxVehicleNumber="2" />
   <interval begin="2400.00" end="3000.00" id="customDet4" sampledSeconds="432.60" nVehEntered="19" nVehLeft="18" nVehSeen="19" meanSpeed="0.38" meanTimeLoss="22.29" meanOccupancy="23.26" maxOccupancy="68.11" meanMaxJamLengthInVehicles="0.64" meanMaxJamLengthInMeters="2.80" maxJamLengthInVehicles="2" maxJamLengthInMeters="9.33" jamLengthInVehiclesSum="386" jamLengthInMetersSum="1679.95" meanHaltingDuration="41.22" maxHaltingDuration="89.00" haltingDurationSum="371.00" meanIntervalHaltingDuration="41.22" maxIntervalHaltingDuration="89.00" intervalHaltingDurationSum="371.00" startedHalts="10.00" meanVehicleNumber="0.74" maxVehicleNumber="2" />
   <interval begin="3000.00" end="3600.00" id="customDet1" sampledSeconds="58.07" nVehEntered="62" nVehLeft="62" nVehSeen="62" meanSpeed="15.59" meanTimeLoss="0.12" meanOccupancy="3.23" maxOccupancy="46.00" meanMaxJamLengthInVehicles="0.00" meanMaxJamLengthInMeters="0.00" maxJamLengthInVehicles="0" maxJamLengthInMeters="0.00" jamLengthInVehiclesSum="0" jamLengthInMetersSum="0.00" meanHaltingDuration="0.00" maxHaltingDuration="0.00" haltingDurationSum="0.00" meanIntervalHaltingDuration="0.00" maxIntervalHaltingDuration="0.00" intervalHaltingDurationSum="0.00" startedHalts="0.00" meanVehicleNumber="0.20" maxVehicleNumber="1" />
   <interval begin="3000.00" end="3600.00" id="customDet2" sampledSeconds="43.00" nVehEntered="46" nVehLeft="46" nVehSeen="46" meanSpeed="15.62" meanTimeLoss="0.12" meanOccupancy="2.31" maxOccupancy="46.00" meanMaxJamLengthInVehicles="0.00" meanMaxJamLengthInMeters="0.00" maxJamLengthInVehicles="0" maxJamLengthInMeters="0.00" jamLengthInVehiclesSum="0" jamLengthInMetersSum="0.00" meanHaltingDuration="0.00" maxHaltingDuration="0.00" haltingDurationSum="0.00" meanIntervalHaltingDuration="0.00" maxIntervalHaltingDuration="0.00" intervalHaltingDurationSum="0.00" startedHalts="0.00" meanVehicleNumber="0.15" maxVehicleNumber="1" />
   <interval begin="3000.00" end="3600.00" id="customDet3" sampledSeconds="602.08" nVehEntered="52" nVehLeft="52" nVehSeen="53" meanSpeed="1.15" meanTimeLoss="10.63" meanOccupancy="32.91" maxOccupancy="68.41" meanMaxJamLengthInVehicles="0.83" meanMaxJamLengthInMeters="3.63" maxJamLengthInVehicles="2" maxJamLengthInMeters="9.34" jamLengthInVehiclesSum="496" jamLengthInMetersSum="2175.56" meanHaltingDuration="61.62" maxHaltingDuration="91.00" haltingDurationSum="493.00" meanIntervalHaltingDuration="57.25" maxIntervalHaltingDuration="91.00" intervalHaltingDurationSum="458.00" startedHalts="8.00" meanVehicleNumber="1.09" maxVehicleNumber="2" />
   <interval begin="3000.00" end="3600.00" id="customDet4" sampledSeconds="472.46" nVehEntered="14" nVehLeft="15" nVehSeen="15" meanSpeed="0.26" meanTimeLoss="31.03" meanOccupancy="25.20" maxOccupancy="68.10" meanMaxJamLengthInVehicles="0.73" meanMaxJamLengthInMeters="3.12" maxJamLengthInVehicles="2" maxJamLengthInMeters="9.40" jamLengthInVehiclesSum="438" jamLengthInMetersSum="1871.89" meanHaltingDuration="55.75" maxHaltingDuration="87.00" haltingDurationSum="446.00" meanIntervalHaltingDuration="55.75" maxIntervalHaltingDuration="87.00" intervalHaltingDurationSum="446.00" startedHalts="8.00" meanVehicleNumber="0.80" maxVehicleNumber="2" />
   <interval begin="3600.00" end="3888.00" id="customDet1" sampledSeconds="0.00" nVehEntered="0" nVehLeft="0" nVehSeen="0" meanSpeed="-1.00" meanTimeLoss="-1.00" meanOccupancy="0.00" maxOccupancy="0.00" meanMaxJamLengthInVehicles="0.00" meanMaxJamLengthInMeters="0.00" maxJamLengthInVehicles="0" maxJamLengthInMeters="0.00" jamLengthInVehiclesSum="0" jamLengthInMetersSum="0.00" meanHaltingDuration="0.00" maxHaltingDuration="0.00" haltingDurationSum="0.00" meanIntervalHaltingDuration="0.00" maxIntervalHaltingDuration="0.00" intervalHaltingDurationSum="0.00" startedHalts="0.00" meanVehicleNumber="0.00" maxVehicleNumber="0" />
   <interval begin="3600.00" end="3888.00" id="customDet2" sampledSeconds="0.00" nVehEntered="0" nVehLeft="0" nVehSeen="0" meanSpeed="-1.00" meanTimeLoss="-1.00" meanOccupancy="0.00" maxOccupancy="0.00" meanMaxJamLengthInVehicles="0.00" meanMaxJamLengthInMeters="0.00" maxJamLengthInVehicles="0" maxJamLengthInMeters="0.00" jamLengthInVehiclesSum="0" jamLengthInMetersSum="0.00" meanHaltingDuration="0.00" maxHaltingDuration="0.00" haltingDurationSum="0.00" meanIntervalHaltingDuration="0.00" maxIntervalHaltingDuration="0.00" intervalHaltingDurationSum="0.00" startedHalts="0.00" meanVehicleNumber="0.00" maxVehicleNumber="0" />
   <interval begin="3600.00" end="3888.00" id="customDet3" sampledSeconds="91.34" nVehEntered="2" nVehLeft="3" nVehSeen="3" meanSpeed="0.24" meanTimeLoss="30.04" meanOccupancy="10.36" maxOccupancy="68.09" meanMaxJamLengthInVehicles="0.30" meanMaxJamLengthInMeters="1.28" maxJamLengthInVehicles="2" maxJamLengthInMeters="9.32" jamLengthInVehiclesSum="85" jamLengthInMetersSum="368.65" meanHaltingDuration="46.00" maxHaltingDuration="53.00" haltingDurationSum="92.00" meanIntervalHaltingDuration="43.00" maxIntervalHaltingDuration="47.00" intervalHaltingDurationSum="86.00" startedHalts="1.00" meanVehicleNumber="0.32" maxVehicleNumber="2" />
   <interval begin="3600.00" end="3888.00" id="customDet4" sampledSeconds="80.22" nVehEntered="2" nVehLeft="2" nVehSeen="2" meanSpeed="0.30" meanTimeLoss="39.43" meanOccupancy="9.15" maxOccupancy="68.09" meanMaxJamLengthInVehicles="0.25" meanMaxJamLengthInMeters="1.10" maxJamLengthInVehicles="2" maxJamLengthInMeters="9.31" jamLengthInVehiclesSum="71" jamLengthInMetersSum="315.72" meanHaltingDuration="36.50" maxHaltingDuration="39.00" haltingDurationSum="73.00" meanIntervalHaltingDuration="36.50" maxIntervalHaltingDuration="39.00" intervalHaltingDurationSum="73.00" startedHalts="2.00" meanVehicleNumber="0.28" maxVehicleNumber="2" />
</detector>
