<?xml version="1.0" encoding="UTF-8"?>

<!-- generated on 2022-12-11 20:57:33 by Eclipse SUMO sumo Version v1_15_0+0944-c751163
This data file and the accompanying materials
are made available under the terms of the Eclipse Public License v2.0
which accompanies this distribution, and is available at
http://www.eclipse.org/legal/epl-v20.html
This file may also be made available under the following Secondary
Licenses when the conditions for such availability set forth in the Eclipse
Public License 2.0 are satisfied: GNU General Public License, version 2
or later which is available at
https://www.gnu.org/licenses/old-licenses/gpl-2.0-standalone.html
SPDX-License-Identifier: EPL-2.0 OR GPL-2.0-or-later
<configuration xmlns:xsi="http://www.w3.org/2001/XMLSchema-instance" xsi:noNamespaceSchemaLocation="http://sumo.dlr.de/xsd/sumoConfiguration.xsd">

    <input>
        <net-file value="net.net.xml"/>
        <route-files value="input_routes.rou.xml"/>
    </input>

    <output>
        <write-license value="true"/>
        <fcd-output value="fcd.xml"/>
        <tripinfo-output value="tripinfos.xml"/>
    </output>

    <processing>
        <lateral-resolution value="0.4"/>
        <default.speeddev value="0"/>
    </processing>

    <report>
        <xml-validation value="never"/>
        <no-step-log value="true"/>
    </report>

</configuration>
-->

<fcd-export xmlns:xsi="http://www.w3.org/2001/XMLSchema-instance" xsi:noNamespaceSchemaLocation="http://sumo.dlr.de/xsd/fcd_file.xsd">
    <timestep time="0.00">
        <vehicle id="A" x="148.88" y="-3.85" angle="90.00" type="t0" speed="13.89" pos="150.00" lane="beg_1" slope="0.00"/>
    </timestep>
    <timestep time="1.00">
        <vehicle id="A" x="162.66" y="-3.15" angle="87.11" type="t0" speed="13.89" pos="163.89" lane="beg_1" slope="0.00"/>
    </timestep>
    <timestep time="2.00">
        <vehicle id="A" x="176.45" y="-3.15" angle="90.00" type="t0" speed="13.89" pos="177.78" lane="beg_1" slope="0.00"/>
    </timestep>
    <timestep time="3.00">
        <vehicle id="A" x="190.23" y="-3.15" angle="90.00" type="t0" speed="13.89" pos="191.67" lane="beg_1" slope="0.00"/>
    </timestep>
    <timestep time="4.00">
        <vehicle id="A" x="206.98" y="-3.15" angle="90.00" type="t0" speed="13.89" pos="5.56" lane="end_0" slope="0.00"/>
    </timestep>
    <timestep time="5.00">
        <vehicle id="A" x="220.66" y="-3.15" angle="90.00" type="t0" speed="13.89" pos="19.45" lane="end_0" slope="0.00"/>
    </timestep>
    <timestep time="6.00">
        <vehicle id="A" x="234.34" y="-3.15" angle="90.00" type="t0" speed="13.89" pos="33.34" lane="end_0" slope="0.00"/>
    </timestep>
    <timestep time="7.00">
        <vehicle id="A" x="248.02" y="-3.15" angle="90.00" type="t0" speed="13.89" pos="47.23" lane="end_0" slope="0.00"/>
    </timestep>
    <timestep time="8.00">
        <vehicle id="A" x="261.70" y="-3.15" angle="90.00" type="t0" speed="13.89" pos="61.12" lane="end_0" slope="0.00"/>
    </timestep>
    <timestep time="9.00">
        <vehicle id="A" x="275.38" y="-3.15" angle="90.00" type="t0" speed="13.89" pos="75.01" lane="end_0" slope="0.00"/>
    </timestep>
    <timestep time="10.00">
        <vehicle id="A" x="289.07" y="-3.15" angle="90.00" type="t0" speed="13.89" pos="88.90" lane="end_0" slope="0.00"/>
    </timestep>
    <timestep time="11.00"/>
</fcd-export>
