<?xml version="1.0" encoding="UTF-8"?>

<!-- generated on Tue Mar  2 12:33:19 2021 by Eclipse SUMO sumo Version v1_8_0+1454-6d4ea36
This data file and the accompanying materials
are made available under the terms of the Eclipse Public License v2.0
which accompanies this distribution, and is available at
http://www.eclipse.org/legal/epl-v20.html
SPDX-License-Identifier: EPL-2.0
<configuration xmlns:xsi="http://www.w3.org/2001/XMLSchema-instance" xsi:noNamespaceSchemaLocation="http://sumo.dlr.de/xsd/sumoConfiguration.xsd">

    <input>
        <net-file value="net.net.xml"/>
        <route-files value="input_routes.rou.xml"/>
    </input>

    <output>
        <write-license value="true"/>
        <fcd-output value="fcd.xml"/>
    </output>

    <time>
        <step-length value="0.25"/>
    </time>

    <processing>
        <collision.mingap-factor value="0"/>
        <default.carfollowmodel value="CACC"/>
        <default.speeddev value="0"/>
    </processing>

    <report>
        <xml-validation value="never"/>
        <xml-validation.routes value="never"/>
        <no-step-log value="true"/>
    </report>

    <driver_state_device>
        <device.driverstate.probability value="1"/>
        <device.driverstate.initialAwareness value="0.5"/>
    </driver_state_device>

    <gui_only>
        <tracker-interval value="0.25"/>
    </gui_only>

</configuration>
-->

<fcd-export xmlns:xsi="http://www.w3.org/2001/XMLSchema-instance" xsi:noNamespaceSchemaLocation="http://sumo.dlr.de/xsd/fcd_file.xsd">
    <timestep time="0.00">
        <vehicle id="first" x="5.10" y="0.00" angle="90.00" type="tFirst" speed="30.00" pos="5.10" lane="0_0" slope="0.00"/>
    </timestep>
    <timestep time="0.25">
        <vehicle id="first" x="12.60" y="0.00" angle="90.00" type="tFirst" speed="30.00" pos="12.60" lane="0_0" slope="0.00"/>
    </timestep>
    <timestep time="0.50">
        <vehicle id="first" x="20.10" y="0.00" angle="90.00" type="tFirst" speed="30.00" pos="20.10" lane="0_0" slope="0.00"/>
    </timestep>
    <timestep time="0.75">
        <vehicle id="first" x="27.60" y="0.00" angle="90.00" type="tFirst" speed="30.00" pos="27.60" lane="0_0" slope="0.00"/>
    </timestep>
    <timestep time="1.00">
        <vehicle id="first" x="35.10" y="0.00" angle="90.00" type="tFirst" speed="30.00" pos="35.10" lane="0_0" slope="0.00"/>
    </timestep>
    <timestep time="1.25">
        <vehicle id="first" x="42.60" y="0.00" angle="90.00" type="tFirst" speed="30.00" pos="42.60" lane="0_0" slope="0.00"/>
    </timestep>
    <timestep time="1.50">
        <vehicle id="first" x="50.10" y="0.00" angle="90.00" type="tFirst" speed="30.00" pos="50.10" lane="0_0" slope="0.00"/>
    </timestep>
    <timestep time="1.75">
        <vehicle id="first" x="57.60" y="0.00" angle="90.00" type="tFirst" speed="30.00" pos="57.60" lane="0_0" slope="0.00"/>
    </timestep>
    <timestep time="2.00">
        <vehicle id="first" x="65.10" y="0.00" angle="90.00" type="tFirst" speed="30.00" pos="65.10" lane="0_0" slope="0.00"/>
        <vehicle id="flow.0" x="5.10" y="0.00" angle="90.00" type="tFlow" speed="32.89" pos="5.10" lane="0_0" slope="0.00"/>
    </timestep>
    <timestep time="2.25">
        <vehicle id="first" x="72.60" y="0.00" angle="90.00" type="tFirst" speed="30.00" pos="72.60" lane="0_0" slope="0.00"/>
        <vehicle id="flow.0" x="13.31" y="0.00" angle="90.00" type="tFlow" speed="32.83" pos="13.31" lane="0_0" slope="0.00"/>
    </timestep>
    <timestep time="2.50">
        <vehicle id="first" x="80.10" y="0.00" angle="90.00" type="tFirst" speed="30.00" pos="80.10" lane="0_0" slope="0.00"/>
        <vehicle id="flow.0" x="21.50" y="0.00" angle="90.00" type="tFlow" speed="32.76" pos="21.50" lane="0_0" slope="0.00"/>
    </timestep>
    <timestep time="2.75">
        <vehicle id="first" x="87.60" y="0.00" angle="90.00" type="tFirst" speed="30.00" pos="87.60" lane="0_0" slope="0.00"/>
        <vehicle id="flow.0" x="29.67" y="0.00" angle="90.00" type="tFlow" speed="32.69" pos="29.67" lane="0_0" slope="0.00"/>
    </timestep>
    <timestep time="3.00">
        <vehicle id="first" x="95.10" y="0.00" angle="90.00" type="tFirst" speed="30.00" pos="95.10" lane="0_0" slope="0.00"/>
        <vehicle id="flow.0" x="37.82" y="0.00" angle="90.00" type="tFlow" speed="32.61" pos="37.82" lane="0_0" slope="0.00"/>
    </timestep>
    <timestep time="3.25">
        <vehicle id="first" x="102.60" y="0.00" angle="90.00" type="tFirst" speed="30.00" pos="102.60" lane="0_0" slope="0.00"/>
        <vehicle id="flow.0" x="45.96" y="0.00" angle="90.00" type="tFlow" speed="32.54" pos="45.96" lane="0_0" slope="0.00"/>
    </timestep>
    <timestep time="3.50">
        <vehicle id="first" x="110.10" y="0.00" angle="90.00" type="tFirst" speed="30.00" pos="110.10" lane="0_0" slope="0.00"/>
        <vehicle id="flow.0" x="54.08" y="0.00" angle="90.00" type="tFlow" speed="32.47" pos="54.08" lane="0_0" slope="0.00"/>
    </timestep>
    <timestep time="3.75">
        <vehicle id="first" x="117.60" y="0.00" angle="90.00" type="tFirst" speed="30.00" pos="117.60" lane="0_0" slope="0.00"/>
        <vehicle id="flow.0" x="62.18" y="0.00" angle="90.00" type="tFlow" speed="32.40" pos="62.18" lane="0_0" slope="0.00"/>
    </timestep>
    <timestep time="4.00">
        <vehicle id="first" x="125.10" y="0.00" angle="90.00" type="tFirst" speed="30.00" pos="125.10" lane="0_0" slope="0.00"/>
        <vehicle id="flow.0" x="70.26" y="0.00" angle="90.00" type="tFlow" speed="32.33" pos="70.26" lane="0_0" slope="0.00"/>
        <vehicle id="flow.1" x="5.10" y="0.00" angle="90.00" type="tFlow" speed="35.36" pos="5.10" lane="0_0" slope="0.00"/>
    </timestep>
    <timestep time="4.25">
        <vehicle id="first" x="132.60" y="0.00" angle="90.00" type="tFirst" speed="30.00" pos="132.60" lane="0_0" slope="0.00"/>
        <vehicle id="flow.0" x="78.32" y="0.00" angle="90.00" type="tFlow" speed="32.26" pos="78.32" lane="0_0" slope="0.00"/>
        <vehicle id="flow.1" x="13.96" y="0.00" angle="90.00" type="tFlow" speed="35.42" pos="13.96" lane="0_0" slope="0.00"/>
    </timestep>
    <timestep time="4.50">
        <vehicle id="first" x="140.10" y="0.00" angle="90.00" type="tFirst" speed="30.00" pos="140.10" lane="0_0" slope="0.00"/>
        <vehicle id="flow.0" x="86.37" y="0.00" angle="90.00" type="tFlow" speed="32.20" pos="86.37" lane="0_0" slope="0.00"/>
        <vehicle id="flow.1" x="22.83" y="0.00" angle="90.00" type="tFlow" speed="35.48" pos="22.83" lane="0_0" slope="0.00"/>
    </timestep>
    <timestep time="4.75">
        <vehicle id="first" x="147.60" y="0.00" angle="90.00" type="tFirst" speed="30.00" pos="147.60" lane="0_0" slope="0.00"/>
        <vehicle id="flow.0" x="94.41" y="0.00" angle="90.00" type="tFlow" speed="32.13" pos="94.41" lane="0_0" slope="0.00"/>
        <vehicle id="flow.1" x="31.71" y="0.00" angle="90.00" type="tFlow" speed="35.53" pos="31.71" lane="0_0" slope="0.00"/>
    </timestep>
    <timestep time="5.00">
        <vehicle id="first" x="155.10" y="0.00" angle="90.00" type="tFirst" speed="30.00" pos="155.10" lane="0_0" slope="0.00"/>
        <vehicle id="flow.0" x="102.42" y="0.00" angle="90.00" type="tFlow" speed="32.07" pos="102.42" lane="0_0" slope="0.00"/>
        <vehicle id="flow.1" x="40.61" y="0.00" angle="90.00" type="tFlow" speed="35.58" pos="40.61" lane="0_0" slope="0.00"/>
    </timestep>
    <timestep time="5.25">
        <vehicle id="first" x="162.60" y="0.00" angle="90.00" type="tFirst" speed="30.00" pos="162.60" lane="0_0" slope="0.00"/>
        <vehicle id="flow.0" x="110.43" y="0.00" angle="90.00" type="tFlow" speed="32.00" pos="110.43" lane="0_0" slope="0.00"/>
        <vehicle id="flow.1" x="49.51" y="0.00" angle="90.00" type="tFlow" speed="35.62" pos="49.51" lane="0_0" slope="0.00"/>
    </timestep>
    <timestep time="5.50">
        <vehicle id="first" x="170.10" y="0.00" angle="90.00" type="tFirst" speed="30.00" pos="170.10" lane="0_0" slope="0.00"/>
        <vehicle id="flow.0" x="118.41" y="0.00" angle="90.00" type="tFlow" speed="31.94" pos="118.41" lane="0_0" slope="0.00"/>
        <vehicle id="flow.1" x="58.39" y="0.00" angle="90.00" type="tFlow" speed="35.53" pos="58.39" lane="0_0" slope="0.00"/>
    </timestep>
    <timestep time="5.75">
        <vehicle id="first" x="177.60" y="0.00" angle="90.00" type="tFirst" speed="30.00" pos="177.60" lane="0_0" slope="0.00"/>
        <vehicle id="flow.0" x="126.38" y="0.00" angle="90.00" type="tFlow" speed="31.88" pos="126.38" lane="0_0" slope="0.00"/>
        <vehicle id="flow.1" x="67.24" y="0.00" angle="90.00" type="tFlow" speed="35.40" pos="67.24" lane="0_0" slope="0.00"/>
    </timestep>
    <timestep time="6.00">
        <vehicle id="first" x="185.10" y="0.00" angle="90.00" type="tFirst" speed="30.00" pos="185.10" lane="0_0" slope="0.00"/>
        <vehicle id="flow.0" x="134.34" y="0.00" angle="90.00" type="tFlow" speed="31.82" pos="134.34" lane="0_0" slope="0.00"/>
        <vehicle id="flow.1" x="76.06" y="0.00" angle="90.00" type="tFlow" speed="35.27" pos="76.06" lane="0_0" slope="0.00"/>
        <vehicle id="flow.2" x="5.10" y="0.00" angle="90.00" type="tFlow" speed="36.00" pos="5.10" lane="0_0" slope="0.00"/>
    </timestep>
    <timestep time="6.25">
        <vehicle id="first" x="192.60" y="0.00" angle="90.00" type="tFirst" speed="30.00" pos="192.60" lane="0_0" slope="0.00"/>
        <vehicle id="flow.0" x="142.28" y="0.00" angle="90.00" type="tFlow" speed="31.76" pos="142.28" lane="0_0" slope="0.00"/>
        <vehicle id="flow.1" x="84.84" y="0.00" angle="90.00" type="tFlow" speed="35.13" pos="84.84" lane="0_0" slope="0.00"/>
        <vehicle id="flow.2" x="14.10" y="0.00" angle="90.00" type="tFlow" speed="36.00" pos="14.10" lane="0_0" slope="0.00"/>
    </timestep>
    <timestep time="6.50">
        <vehicle id="first" x="200.10" y="0.00" angle="90.00" type="tFirst" speed="30.00" pos="200.10" lane="0_0" slope="0.00"/>
        <vehicle id="flow.0" x="150.20" y="0.00" angle="90.00" type="tFlow" speed="31.71" pos="150.20" lane="0_0" slope="0.00"/>
        <vehicle id="flow.1" x="93.59" y="0.00" angle="90.00" type="tFlow" speed="35.00" pos="93.59" lane="0_0" slope="0.00"/>
        <vehicle id="flow.2" x="23.10" y="0.00" angle="90.00" type="tFlow" speed="36.00" pos="23.10" lane="0_0" slope="0.00"/>
    </timestep>
    <timestep time="6.75">
        <vehicle id="first" x="207.60" y="0.00" angle="90.00" type="tFirst" speed="30.00" pos="207.60" lane="0_0" slope="0.00"/>
        <vehicle id="flow.0" x="158.12" y="0.00" angle="90.00" type="tFlow" speed="31.65" pos="158.12" lane="0_0" slope="0.00"/>
        <vehicle id="flow.1" x="102.31" y="0.00" angle="90.00" type="tFlow" speed="34.87" pos="102.31" lane="0_0" slope="0.00"/>
        <vehicle id="flow.2" x="32.10" y="0.00" angle="90.00" type="tFlow" speed="36.00" pos="32.10" lane="0_0" slope="0.00"/>
    </timestep>
    <timestep time="7.00">
        <vehicle id="first" x="215.10" y="0.00" angle="90.00" type="tFirst" speed="30.00" pos="215.10" lane="0_0" slope="0.00"/>
        <vehicle id="flow.0" x="166.02" y="0.00" angle="90.00" type="tFlow" speed="31.60" pos="166.02" lane="0_0" slope="0.00"/>
        <vehicle id="flow.1" x="110.99" y="0.00" angle="90.00" type="tFlow" speed="34.73" pos="110.99" lane="0_0" slope="0.00"/>
        <vehicle id="flow.2" x="41.10" y="0.00" angle="90.00" type="tFlow" speed="36.00" pos="41.10" lane="0_0" slope="0.00"/>
    </timestep>
    <timestep time="7.25">
        <vehicle id="first" x="222.60" y="0.00" angle="90.00" type="tFirst" speed="30.00" pos="222.60" lane="0_0" slope="0.00"/>
        <vehicle id="flow.0" x="173.90" y="0.00" angle="90.00" type="tFlow" speed="31.54" pos="173.90" lane="0_0" slope="0.00"/>
        <vehicle id="flow.1" x="119.64" y="0.00" angle="90.00" type="tFlow" speed="34.60" pos="119.64" lane="0_0" slope="0.00"/>
        <vehicle id="flow.2" x="50.10" y="0.00" angle="90.00" type="tFlow" speed="36.00" pos="50.10" lane="0_0" slope="0.00"/>
    </timestep>
    <timestep time="7.50">
        <vehicle id="first" x="230.10" y="0.00" angle="90.00" type="tFirst" speed="30.00" pos="230.10" lane="0_0" slope="0.00"/>
        <vehicle id="flow.0" x="181.77" y="0.00" angle="90.00" type="tFlow" speed="31.49" pos="181.77" lane="0_0" slope="0.00"/>
        <vehicle id="flow.1" x="128.26" y="0.00" angle="90.00" type="tFlow" speed="34.47" pos="128.26" lane="0_0" slope="0.00"/>
        <vehicle id="flow.2" x="59.10" y="0.00" angle="90.00" type="tFlow" speed="36.00" pos="59.10" lane="0_0" slope="0.00"/>
    </timestep>
    <timestep time="7.75">
        <vehicle id="first" x="237.60" y="0.00" angle="90.00" type="tFirst" speed="30.00" pos="237.60" lane="0_0" slope="0.00"/>
        <vehicle id="flow.0" x="189.63" y="0.00" angle="90.00" type="tFlow" speed="31.44" pos="189.63" lane="0_0" slope="0.00"/>
        <vehicle id="flow.1" x="136.85" y="0.00" angle="90.00" type="tFlow" speed="34.34" pos="136.85" lane="0_0" slope="0.00"/>
        <vehicle id="flow.2" x="68.10" y="0.00" angle="90.00" type="tFlow" speed="36.00" pos="68.10" lane="0_0" slope="0.00"/>
    </timestep>
    <timestep time="8.00">
        <vehicle id="first" x="245.10" y="0.00" angle="90.00" type="tFirst" speed="30.00" pos="245.10" lane="0_0" slope="0.00"/>
        <vehicle id="flow.0" x="197.48" y="0.00" angle="90.00" type="tFlow" speed="31.39" pos="197.48" lane="0_0" slope="0.00"/>
        <vehicle id="flow.1" x="145.40" y="0.00" angle="90.00" type="tFlow" speed="34.21" pos="145.40" lane="0_0" slope="0.00"/>
        <vehicle id="flow.2" x="77.10" y="0.00" angle="90.00" type="tFlow" speed="36.00" pos="77.10" lane="0_0" slope="0.00"/>
    </timestep>
    <timestep time="8.25">
        <vehicle id="first" x="252.60" y="0.00" angle="90.00" type="tFirst" speed="30.00" pos="252.60" lane="0_0" slope="0.00"/>
        <vehicle id="flow.0" x="205.32" y="0.00" angle="90.00" type="tFlow" speed="31.34" pos="205.32" lane="0_0" slope="0.00"/>
        <vehicle id="flow.1" x="153.92" y="0.00" angle="90.00" type="tFlow" speed="34.08" pos="153.92" lane="0_0" slope="0.00"/>
        <vehicle id="flow.2" x="86.10" y="0.00" angle="90.00" type="tFlow" speed="36.00" pos="86.10" lane="0_0" slope="0.00"/>
    </timestep>
    <timestep time="8.50">
        <vehicle id="first" x="260.10" y="0.00" angle="90.00" type="tFirst" speed="30.00" pos="260.10" lane="0_0" slope="0.00"/>
        <vehicle id="flow.0" x="213.14" y="0.00" angle="90.00" type="tFlow" speed="31.30" pos="213.14" lane="0_0" slope="0.00"/>
        <vehicle id="flow.1" x="162.41" y="0.00" angle="90.00" type="tFlow" speed="33.96" pos="162.41" lane="0_0" slope="0.00"/>
        <vehicle id="flow.2" x="95.10" y="0.00" angle="90.00" type="tFlow" speed="36.00" pos="95.10" lane="0_0" slope="0.00"/>
    </timestep>
    <timestep time="8.75">
        <vehicle id="first" x="267.60" y="0.00" angle="90.00" type="tFirst" speed="30.00" pos="267.60" lane="0_0" slope="0.00"/>
        <vehicle id="flow.0" x="220.95" y="0.00" angle="90.00" type="tFlow" speed="31.25" pos="220.95" lane="0_0" slope="0.00"/>
        <vehicle id="flow.1" x="170.87" y="0.00" angle="90.00" type="tFlow" speed="33.83" pos="170.87" lane="0_0" slope="0.00"/>
        <vehicle id="flow.2" x="104.10" y="0.00" angle="90.00" type="tFlow" speed="36.00" pos="104.10" lane="0_0" slope="0.00"/>
    </timestep>
    <timestep time="9.00">
        <vehicle id="first" x="275.10" y="0.00" angle="90.00" type="tFirst" speed="30.00" pos="275.10" lane="0_0" slope="0.00"/>
        <vehicle id="flow.0" x="228.75" y="0.00" angle="90.00" type="tFlow" speed="31.20" pos="228.75" lane="0_0" slope="0.00"/>
        <vehicle id="flow.1" x="179.30" y="0.00" angle="90.00" type="tFlow" speed="33.71" pos="179.30" lane="0_0" slope="0.00"/>
        <vehicle id="flow.2" x="113.10" y="0.00" angle="90.00" type="tFlow" speed="36.00" pos="113.10" lane="0_0" slope="0.00"/>
    </timestep>
    <timestep time="9.25">
        <vehicle id="first" x="282.60" y="0.00" angle="90.00" type="tFirst" speed="30.00" pos="282.60" lane="0_0" slope="0.00"/>
        <vehicle id="flow.0" x="236.55" y="0.00" angle="90.00" type="tFlow" speed="31.16" pos="236.55" lane="0_0" slope="0.00"/>
        <vehicle id="flow.1" x="187.70" y="0.00" angle="90.00" type="tFlow" speed="33.59" pos="187.70" lane="0_0" slope="0.00"/>
        <vehicle id="flow.2" x="122.10" y="0.00" angle="90.00" type="tFlow" speed="36.00" pos="122.10" lane="0_0" slope="0.00"/>
    </timestep>
    <timestep time="9.50">
        <vehicle id="first" x="290.10" y="0.00" angle="90.00" type="tFirst" speed="30.00" pos="290.10" lane="0_0" slope="0.00"/>
        <vehicle id="flow.0" x="244.32" y="0.00" angle="90.00" type="tFlow" speed="31.12" pos="244.32" lane="0_0" slope="0.00"/>
        <vehicle id="flow.1" x="196.06" y="0.00" angle="90.00" type="tFlow" speed="33.47" pos="196.06" lane="0_0" slope="0.00"/>
        <vehicle id="flow.2" x="131.10" y="0.00" angle="90.00" type="tFlow" speed="36.00" pos="131.10" lane="0_0" slope="0.00"/>
    </timestep>
    <timestep time="9.75">
        <vehicle id="first" x="297.60" y="0.00" angle="90.00" type="tFirst" speed="30.00" pos="297.60" lane="0_0" slope="0.00"/>
        <vehicle id="flow.0" x="252.09" y="0.00" angle="90.00" type="tFlow" speed="31.08" pos="252.09" lane="0_0" slope="0.00"/>
        <vehicle id="flow.1" x="204.40" y="0.00" angle="90.00" type="tFlow" speed="33.35" pos="204.40" lane="0_0" slope="0.00"/>
        <vehicle id="flow.2" x="140.10" y="0.00" angle="90.00" type="tFlow" speed="36.00" pos="140.10" lane="0_0" slope="0.00"/>
    </timestep>
    <timestep time="10.00">
        <vehicle id="first" x="305.10" y="0.00" angle="90.00" type="tFirst" speed="30.00" pos="305.10" lane="0_0" slope="0.00"/>
        <vehicle id="flow.0" x="259.85" y="0.00" angle="90.00" type="tFlow" speed="31.04" pos="259.85" lane="0_0" slope="0.00"/>
        <vehicle id="flow.1" x="212.71" y="0.00" angle="90.00" type="tFlow" speed="33.24" pos="212.71" lane="0_0" slope="0.00"/>
        <vehicle id="flow.2" x="149.10" y="0.00" angle="90.00" type="tFlow" speed="36.00" pos="149.10" lane="0_0" slope="0.00"/>
    </timestep>
    <timestep time="10.25">
        <vehicle id="first" x="312.60" y="0.00" angle="90.00" type="tFirst" speed="30.00" pos="312.60" lane="0_0" slope="0.00"/>
        <vehicle id="flow.0" x="267.60" y="0.00" angle="90.00" type="tFlow" speed="31.00" pos="267.60" lane="0_0" slope="0.00"/>
        <vehicle id="flow.1" x="220.99" y="0.00" angle="90.00" type="tFlow" speed="33.12" pos="220.99" lane="0_0" slope="0.00"/>
        <vehicle id="flow.2" x="158.10" y="0.00" angle="90.00" type="tFlow" speed="36.00" pos="158.10" lane="0_0" slope="0.00"/>
    </timestep>
    <timestep time="10.50">
        <vehicle id="first" x="320.10" y="0.00" angle="90.00" type="tFirst" speed="30.00" pos="320.10" lane="0_0" slope="0.00"/>
        <vehicle id="flow.0" x="275.34" y="0.00" angle="90.00" type="tFlow" speed="30.96" pos="275.34" lane="0_0" slope="0.00"/>
        <vehicle id="flow.1" x="229.24" y="0.00" angle="90.00" type="tFlow" speed="33.01" pos="229.24" lane="0_0" slope="0.00"/>
        <vehicle id="flow.2" x="167.10" y="0.00" angle="90.00" type="tFlow" speed="36.00" pos="167.10" lane="0_0" slope="0.00"/>
    </timestep>
    <timestep time="10.75">
        <vehicle id="first" x="327.60" y="0.00" angle="90.00" type="tFirst" speed="30.00" pos="327.60" lane="0_0" slope="0.00"/>
        <vehicle id="flow.0" x="283.08" y="0.00" angle="90.00" type="tFlow" speed="30.92" pos="283.08" lane="0_0" slope="0.00"/>
        <vehicle id="flow.1" x="237.47" y="0.00" angle="90.00" type="tFlow" speed="32.90" pos="237.47" lane="0_0" slope="0.00"/>
        <vehicle id="flow.2" x="176.10" y="0.00" angle="90.00" type="tFlow" speed="36.00" pos="176.10" lane="0_0" slope="0.00"/>
    </timestep>
    <timestep time="11.00">
        <vehicle id="first" x="335.10" y="0.00" angle="90.00" type="tFirst" speed="30.00" pos="335.10" lane="0_0" slope="0.00"/>
        <vehicle id="flow.0" x="290.80" y="0.00" angle="90.00" type="tFlow" speed="30.89" pos="290.80" lane="0_0" slope="0.00"/>
        <vehicle id="flow.1" x="245.67" y="0.00" angle="90.00" type="tFlow" speed="32.80" pos="245.67" lane="0_0" slope="0.00"/>
        <vehicle id="flow.2" x="185.08" y="0.00" angle="90.00" type="tFlow" speed="35.92" pos="185.08" lane="0_0" slope="0.00"/>
    </timestep>
    <timestep time="11.25">
        <vehicle id="first" x="342.60" y="0.00" angle="90.00" type="tFirst" speed="30.00" pos="342.60" lane="0_0" slope="0.00"/>
        <vehicle id="flow.0" x="298.51" y="0.00" angle="90.00" type="tFlow" speed="30.85" pos="298.51" lane="0_0" slope="0.00"/>
        <vehicle id="flow.1" x="253.84" y="0.00" angle="90.00" type="tFlow" speed="32.69" pos="253.84" lane="0_0" slope="0.00"/>
        <vehicle id="flow.2" x="194.04" y="0.00" angle="90.00" type="tFlow" speed="35.82" pos="194.04" lane="0_0" slope="0.00"/>
    </timestep>
    <timestep time="11.50">
        <vehicle id="first" x="350.10" y="0.00" angle="90.00" type="tFirst" speed="30.00" pos="350.10" lane="0_0" slope="0.00"/>
        <vehicle id="flow.0" x="306.22" y="0.00" angle="90.00" type="tFlow" speed="30.82" pos="306.22" lane="0_0" slope="0.00"/>
        <vehicle id="flow.1" x="261.99" y="0.00" angle="90.00" type="tFlow" speed="32.59" pos="261.99" lane="0_0" slope="0.00"/>
        <vehicle id="flow.2" x="202.97" y="0.00" angle="90.00" type="tFlow" speed="35.72" pos="202.97" lane="0_0" slope="0.00"/>
    </timestep>
    <timestep time="11.75">
        <vehicle id="first" x="357.60" y="0.00" angle="90.00" type="tFirst" speed="30.00" pos="357.60" lane="0_0" slope="0.00"/>
        <vehicle id="flow.0" x="313.91" y="0.00" angle="90.00" type="tFlow" speed="30.79" pos="313.91" lane="0_0" slope="0.00"/>
        <vehicle id="flow.1" x="270.11" y="0.00" angle="90.00" type="tFlow" speed="32.49" pos="270.11" lane="0_0" slope="0.00"/>
        <vehicle id="flow.2" x="211.87" y="0.00" angle="90.00" type="tFlow" speed="35.61" pos="211.87" lane="0_0" slope="0.00"/>
    </timestep>
    <timestep time="12.00">
        <vehicle id="first" x="365.10" y="0.00" angle="90.00" type="tFirst" speed="30.00" pos="365.10" lane="0_0" slope="0.00"/>
        <vehicle id="flow.0" x="321.60" y="0.00" angle="90.00" type="tFlow" speed="30.76" pos="321.60" lane="0_0" slope="0.00"/>
        <vehicle id="flow.1" x="278.21" y="0.00" angle="90.00" type="tFlow" speed="32.39" pos="278.21" lane="0_0" slope="0.00"/>
        <vehicle id="flow.2" x="220.74" y="0.00" angle="90.00" type="tFlow" speed="35.49" pos="220.74" lane="0_0" slope="0.00"/>
    </timestep>
    <timestep time="12.25">
        <vehicle id="first" x="372.60" y="0.00" angle="90.00" type="tFirst" speed="30.00" pos="372.60" lane="0_0" slope="0.00"/>
        <vehicle id="flow.0" x="329.28" y="0.00" angle="90.00" type="tFlow" speed="30.73" pos="329.28" lane="0_0" slope="0.00"/>
        <vehicle id="flow.1" x="286.28" y="0.00" angle="90.00" type="tFlow" speed="32.29" pos="286.28" lane="0_0" slope="0.00"/>
        <vehicle id="flow.2" x="229.58" y="0.00" angle="90.00" type="tFlow" speed="35.37" pos="229.58" lane="0_0" slope="0.00"/>
    </timestep>
    <timestep time="12.50">
        <vehicle id="first" x="380.10" y="0.00" angle="90.00" type="tFirst" speed="30.00" pos="380.10" lane="0_0" slope="0.00"/>
        <vehicle id="flow.0" x="336.96" y="0.00" angle="90.00" type="tFlow" speed="30.70" pos="336.96" lane="0_0" slope="0.00"/>
        <vehicle id="flow.1" x="294.33" y="0.00" angle="90.00" type="tFlow" speed="32.20" pos="294.33" lane="0_0" slope="0.00"/>
        <vehicle id="flow.2" x="238.40" y="0.00" angle="90.00" type="tFlow" speed="35.25" pos="238.40" lane="0_0" slope="0.00"/>
    </timestep>
    <timestep time="12.75">
        <vehicle id="first" x="387.60" y="0.00" angle="90.00" type="tFirst" speed="30.00" pos="387.60" lane="0_0" slope="0.00"/>
        <vehicle id="flow.0" x="344.63" y="0.00" angle="90.00" type="tFlow" speed="30.67" pos="344.63" lane="0_0" slope="0.00"/>
        <vehicle id="flow.1" x="302.36" y="0.00" angle="90.00" type="tFlow" speed="32.11" pos="302.36" lane="0_0" slope="0.00"/>
        <vehicle id="flow.2" x="247.18" y="0.00" angle="90.00" type="tFlow" speed="35.13" pos="247.18" lane="0_0" slope="0.00"/>
    </timestep>
    <timestep time="13.00">
        <vehicle id="first" x="395.10" y="0.00" angle="90.00" type="tFirst" speed="30.00" pos="395.10" lane="0_0" slope="0.00"/>
        <vehicle id="flow.0" x="352.29" y="0.00" angle="90.00" type="tFlow" speed="30.64" pos="352.29" lane="0_0" slope="0.00"/>
        <vehicle id="flow.1" x="310.40" y="0.00" angle="90.00" type="tFlow" speed="32.16" pos="310.40" lane="0_0" slope="0.00"/>
        <vehicle id="flow.2" x="255.93" y="0.00" angle="90.00" type="tFlow" speed="35.00" pos="255.93" lane="0_0" slope="0.00"/>
    </timestep>
    <timestep time="13.25">
        <vehicle id="first" x="402.60" y="0.00" angle="90.00" type="tFirst" speed="30.00" pos="402.60" lane="0_0" slope="0.00"/>
        <vehicle id="flow.0" x="359.94" y="0.00" angle="90.00" type="tFlow" speed="30.61" pos="359.94" lane="0_0" slope="0.00"/>
        <vehicle id="flow.1" x="318.39" y="0.00" angle="90.00" type="tFlow" speed="31.97" pos="318.39" lane="0_0" slope="0.00"/>
        <vehicle id="flow.2" x="264.65" y="0.00" angle="90.00" type="tFlow" speed="34.88" pos="264.65" lane="0_0" slope="0.00"/>
    </timestep>
    <timestep time="13.50">
        <vehicle id="first" x="410.10" y="0.00" angle="90.00" type="tFirst" speed="30.00" pos="410.10" lane="0_0" slope="0.00"/>
        <vehicle id="flow.0" x="367.59" y="0.00" angle="90.00" type="tFlow" speed="30.59" pos="367.59" lane="0_0" slope="0.00"/>
        <vehicle id="flow.1" x="326.31" y="0.00" angle="90.00" type="tFlow" speed="31.68" pos="326.31" lane="0_0" slope="0.00"/>
        <vehicle id="flow.2" x="273.34" y="0.00" angle="90.00" type="tFlow" speed="34.76" pos="273.34" lane="0_0" slope="0.00"/>
    </timestep>
    <timestep time="13.75">
        <vehicle id="first" x="417.60" y="0.00" angle="90.00" type="tFirst" speed="30.00" pos="417.60" lane="0_0" slope="0.00"/>
        <vehicle id="flow.0" x="375.23" y="0.00" angle="90.00" type="tFlow" speed="30.56" pos="375.23" lane="0_0" slope="0.00"/>
        <vehicle id="flow.1" x="334.15" y="0.00" angle="90.00" type="tFlow" speed="31.38" pos="334.15" lane="0_0" slope="0.00"/>
        <vehicle id="flow.2" x="281.99" y="0.00" angle="90.00" type="tFlow" speed="34.62" pos="281.99" lane="0_0" slope="0.00"/>
    </timestep>
    <timestep time="14.00">
        <vehicle id="first" x="425.10" y="0.00" angle="90.00" type="tFirst" speed="30.00" pos="425.10" lane="0_0" slope="0.00"/>
        <vehicle id="flow.0" x="382.86" y="0.00" angle="90.00" type="tFlow" speed="30.54" pos="382.86" lane="0_0" slope="0.00"/>
        <vehicle id="flow.1" x="341.94" y="0.00" angle="90.00" type="tFlow" speed="31.14" pos="341.94" lane="0_0" slope="0.00"/>
        <vehicle id="flow.2" x="290.61" y="0.00" angle="90.00" type="tFlow" speed="34.47" pos="290.61" lane="0_0" slope="0.00"/>
    </timestep>
    <timestep time="14.25">
        <vehicle id="first" x="432.60" y="0.00" angle="90.00" type="tFirst" speed="30.00" pos="432.60" lane="0_0" slope="0.00"/>
        <vehicle id="flow.0" x="390.49" y="0.00" angle="90.00" type="tFlow" speed="30.52" pos="390.49" lane="0_0" slope="0.00"/>
        <vehicle id="flow.1" x="349.68" y="0.00" angle="90.00" type="tFlow" speed="30.97" pos="349.68" lane="0_0" slope="0.00"/>
        <vehicle id="flow.2" x="299.19" y="0.00" angle="90.00" type="tFlow" speed="34.31" pos="299.19" lane="0_0" slope="0.00"/>
    </timestep>
    <timestep time="14.50">
        <vehicle id="first" x="440.10" y="0.00" angle="90.00" type="tFirst" speed="30.00" pos="440.10" lane="0_0" slope="0.00"/>
        <vehicle id="flow.0" x="398.12" y="0.00" angle="90.00" type="tFlow" speed="30.49" pos="398.12" lane="0_0" slope="0.00"/>
        <vehicle id="flow.1" x="357.39" y="0.00" angle="90.00" type="tFlow" speed="30.84" pos="357.39" lane="0_0" slope="0.00"/>
        <vehicle id="flow.2" x="307.72" y="0.00" angle="90.00" type="tFlow" speed="34.14" pos="307.72" lane="0_0" slope="0.00"/>
    </timestep>
    <timestep time="14.75">
        <vehicle id="first" x="447.60" y="0.00" angle="90.00" type="tFirst" speed="30.00" pos="447.60" lane="0_0" slope="0.00"/>
        <vehicle id="flow.0" x="405.73" y="0.00" angle="90.00" type="tFlow" speed="30.47" pos="405.73" lane="0_0" slope="0.00"/>
        <vehicle id="flow.1" x="365.08" y="0.00" angle="90.00" type="tFlow" speed="30.74" pos="365.08" lane="0_0" slope="0.00"/>
        <vehicle id="flow.2" x="316.21" y="0.00" angle="90.00" type="tFlow" speed="33.97" pos="316.21" lane="0_0" slope="0.00"/>
    </timestep>
    <timestep time="15.00">
        <vehicle id="first" x="455.10" y="0.00" angle="90.00" type="tFirst" speed="30.00" pos="455.10" lane="0_0" slope="0.00"/>
        <vehicle id="flow.0" x="413.35" y="0.00" angle="90.00" type="tFlow" speed="30.45" pos="413.35" lane="0_0" slope="0.00"/>
        <vehicle id="flow.1" x="372.75" y="0.00" angle="90.00" type="tFlow" speed="30.67" pos="372.75" lane="0_0" slope="0.00"/>
        <vehicle id="flow.2" x="324.66" y="0.00" angle="90.00" type="tFlow" speed="33.80" pos="324.66" lane="0_0" slope="0.00"/>
    </timestep>
    <timestep time="15.25">
        <vehicle id="first" x="462.60" y="0.00" angle="90.00" type="tFirst" speed="30.00" pos="462.60" lane="0_0" slope="0.00"/>
        <vehicle id="flow.0" x="420.95" y="0.00" angle="90.00" type="tFlow" speed="30.43" pos="420.95" lane="0_0" slope="0.00"/>
        <vehicle id="flow.1" x="380.40" y="0.00" angle="90.00" type="tFlow" speed="30.61" pos="380.40" lane="0_0" slope="0.00"/>
        <vehicle id="flow.2" x="333.07" y="0.00" angle="90.00" type="tFlow" speed="33.63" pos="333.07" lane="0_0" slope="0.00"/>
    </timestep>
    <timestep time="15.50">