<?xml version="1.0" encoding="UTF-8"?>

<!-- generated on 2024-09-25 11:57:09 by Eclipse SUMO sumo Version v1_20_0+2138-4520b1603e4
This data file and the accompanying materials
are made available under the terms of the Eclipse Public License v2.0
which accompanies this distribution, and is available at
http://www.eclipse.org/legal/epl-v20.html
This file may also be made available under the following Secondary
Licenses when the conditions for such availability set forth in the Eclipse
Public License 2.0 are satisfied: GNU General Public License, version 2
or later which is available at
https://www.gnu.org/licenses/old-licenses/gpl-2.0-standalone.html
SPDX-License-Identifier: EPL-2.0 OR GPL-2.0-or-later
<sumoConfiguration xmlns:xsi="http://www.w3.org/2001/XMLSchema-instance" xsi:noNamespaceSchemaLocation="http://sumo.dlr.de/xsd/sumoConfiguration.xsd">

    <input>
        <net-file value="net.net.xml"/>
        <route-files value="input_routes.rou.xml"/>
        <additional-files value="input_additional.add.xml,input_additional2.add.xml,input_additional3.add.xml"/>
    </input>

    <output>
        <write-license value="true"/>
        <vehroute-output value="vehroutes.xml"/>
        <vehroute-output.exit-times value="true"/>
        <vehroute-output.cost value="true"/>
        <vehroute-output.route-length value="true"/>
        <vehroute-output.write-unfinished value="true"/>
        <stop-output value="stopinfos.xml"/>
        <stop-output.write-unfinished value="true"/>
    </output>

    <time>
        <end value="500"/>
    </time>

    <processing>
        <default.speeddev value="0"/>
    </processing>

    <report>
        <xml-validation value="never"/>
        <duration-log.disable value="true"/>
        <no-step-log value="true"/>
    </report>

    <gui_only>
        <gui-settings-file value="settings.xml"/>
    </gui_only>

</sumoConfiguration>
-->

<routes xmlns:xsi="http://www.w3.org/2001/XMLSchema-instance" xsi:noNamespaceSchemaLocation="http://sumo.dlr.de/xsd/routes_file.xsd">
    <vehicle id="ego.0" type="car" depart="0.00" departSpeed="13.89" speedFactor="1.0000" routeLength="49.90">
        <route cost="0.00" savings="0.00" edges="A0A1" exitTimes="-1"/>
        <stop parkingArea="parkA0A1" duration="3600.00" started="6.00" ended="-1"/>
    </vehicle>

    <vehicle id="ego.1" type="car" depart="2.00" departSpeed="13.89" speedFactor="1.0000" routeLength="151.40">
        <routeDistribution>
            <route cost="0.00" savings="0.00" replacedOnEdge="A0A1" reason="parkA0A1:parkingAreaReroute" replacedAtTime="7.00" probability="0" edges="A0A1" routeLength="87.00"/>
            <route cost="51.67" savings="-45.00" edges="A0A1 A1A2 A2B2 B2B1 B1B0 B0A0 A0A1" exitTimes="13.00 -1 -1 -1 -1 -1 -1"/>
        </routeDistribution>
        <stop parkingArea="parkA1A2" duration="3600.00" started="19.00" ended="-1"/>
    </vehicle>

    <vehicle id="ego.2" type="car" depart="4.00" departSpeed="13.89" speedFactor="1.0000" routeLength="247.76">
        <routeDistribution>
            <route cost="0.00" savings="0.00" replacedOnEdge="A0A1" reason="parkA0A1:parkingAreaReroute" replacedAtTime="7.00" probability="0" edges="A0A1" routeLength="87.00"/>
            <route cost="61.70" savings="-55.04" edges="A0A1 A1B1 B1B2 B2B1 B1B0 B0A0 A0A1" exitTimes="14.00 22.00 -1 -1 -1 -1 -1"/>
        </routeDistribution>
        <stop parkingArea="parkB1B2" duration="3600.00" started="29.00" ended="-1"/>
    </vehicle>

    <vehicle id="ego.3" type="car" depart="6.00" departSpeed="13.599" speedFactor="1.0000" routeLength="447.76">
        <routeDistribution>
            <route cost="0.00" savings="0.00" replacedOnEdge="A0A1" reason="parkA0A1:parkingAreaReroute" replacedAtTime="7.00" probability="0" edges="A0A1" routeLength="87.00"/>
            <route cost="51.67" savings="-45.00" replacedOnEdge="A1A2" replacedOnIndex="1" reason="parkA1A2:parkingAreaReroute" replacedAtTime="20.00" probability="0" edges="A0A1 A1A2 A2B2 B2B1 B1B0 B0A0 A0A1" routeLength="669.98"/>
            <route cost="79.80" savings="-35.28" edges="A0A1 A1A2 A2B2 B2C2 C2C3 C3B3 B3B2 B2B1 B1B0 B0A0 A0A1" exitTimes="16.00 24.00 32.00 40.00 -1 -1 -1 -1 -1 -1 -1"/>
        </routeDistribution>
        <stop parkingArea="parkC2C3" duration="3600.00" started="47.00" ended="-1"/>
    </vehicle>

    <vehicle id="ego.4" type="car" depart="8.00" departSpeed="11.1317" speedFactor="1.0000" routeLength="931.03">
        <routeDistribution>
            <route cost="0.00" savings="0.00" replacedOnEdge="A0A1" reason="parkA0A1:parkingAreaReroute" replacedAtTime="8.00" probability="0" edges="A0A1" routeLength="87.00"/>
            <route cost="51.70" savings="-45.02" replacedOnEdge="A1A2" replacedOnIndex="1" reason="parkA1A2:parkingAreaReroute" replacedAtTime="20.00" probability="0" edges="A0A1 A1A2 A2B2 B2B1 B1B0 B0A0 A0A1" routeLength="669.98"/>
            <route cost="78.24" savings="-33.72" replacedOnEdge="B1B2" replacedOnIndex="4" reason="parkB1B2:parkingAreaReroute" replacedAtTime="42.00" probability="0" edges="A0A1 A1A2 A2B2 B2B1 B1B2 B2B1 B1B0 B0A0 A0A1" routeLength="860.54"/>
            <route cost="71.28" savings="-25.01" replacedOnEdge="C2C3" replacedOnIndex="6" reason="parkC2C3:parkingAreaReroute" replacedAtTime="58.00" probability="0" edges="A0A1 A1A2 A2B2 B2B1 B1B2 B2C2 C2C3 C3B3 B3B2 B2B1 B1B0 B0A0 A0A1" routeLength="1263.14"/>
            <route cost="92.25" savings="-36.61" edges="A0A1 A1A2 A2B2 B2B1 B1B2 B2C2 C2C3 C3C2 C2D2 D2D3 D3C3 C3B3 B3B2 B2B1 B1B0 B0A0 A0A1" exitTimes="17.00 26.00 34.00 42.00 49.00 57.00 66.00 74.00 83.00 -1 -1 -1 -1 -1 -1 -1 -1"/>
        </routeDistribution>
        <stop parkingArea="parkD2D3" duration="3600.00" started="90.00" ended="-1"/>
    </vehicle>

    <vehicle id="ego.5" type="car" depart="10.00" departSpeed="8.447" speedFactor="1.0000" routeLength="337.87">
        <routeDistribution>
            <route cost="0.00" savings="0.00" replacedOnEdge="A0A1" reason="parkA0A1:parkingAreaReroute" replacedAtTime="10.00" probability="0" edges="A0A1" routeLength="87.00"/>
            <route cost="66.11" savings="-59.38" edges="A0A1 A1B1 B1B0 B0B1 B1B0 B0A0 A0A1" exitTimes="19.00 27.00 35.00 -1 -1 -1 -1"/>
        </routeDistribution>
        <stop parkingArea="parkB0B1" duration="3600.00" started="41.00" ended="-1"/>
    </vehicle>

    <vehicle id="ego.6" type="car" depart="12.00" departSpeed="6.185" speedFactor="1.0000" routeLength="624.34">
        <routeDistribution>
            <route cost="0.00" savings="0.00" replacedOnEdge="A0A1" reason="parkA0A1:parkingAreaReroute" replacedAtTime="12.00" probability="0" edges="A0A1" routeLength="87.00"/>
            <route cost="66.18" savings="-59.42" replacedOnEdge="B0B1" replacedOnIndex="3" reason="parkB0B1:parkingAreaReroute" replacedAtTime="42.00" probability="0" edges="A0A1 A1B1 B1B0 B0B1 B1B0 B0A0 A0A1" routeLength="660.53"/>
            <route cost="68.30" savings="-29.27" edges="A0A1 A1B1 B1B0 B0B1 B1C1 C1C0 C0C1 C1B1 B1B0 B0A0 A0A1" exitTimes="20.00 29.00 37.00 47.00 55.00 63.00 -1 -1 -1 -1 -1"/>
        </routeDistribution>
        <stop parkingArea="parkC0C1" duration="3600.00" started="69.00" ended="-1"/>
    </vehicle>

    <vehicle id="ego.7" type="car" depart="14.00" departSpeed="5.7615" speedFactor="1.0000" routeLength="347.76">
        <routeDistribution>
            <route cost="0.00" savings="0.00" replacedOnEdge="A0A1" reason="parkA0A1:parkingAreaReroute" replacedAtTime="14.00" probability="0" edges="A0A1" routeLength="87.00"/>
            <route cost="61.95" savings="-55.16" replacedOnEdge="B1B2" replacedOnIndex="2" reason="parkB1B2:parkingAreaReroute" replacedAtTime="32.00" probability="0" edges="A0A1 A1B1 B1B2 B2B1 B1B0 B0A0 A0A1" routeLength="670.42"/>
            <route cost="55.59" savings="-9.40" edges="A0A1 A1B1 B1B2 B2B3 B3B2 B2B1 B1B0 B0A0 A0A1" exitTimes="22.00 31.00 38.00 -1 -1 -1 -1 -1 -1"/>
        </routeDistribution>
        <stop parkingArea="parkB2B3" duration="3600.00" started="45.00" ended="-1"/>
    </vehicle>

    <vehicle id="ego.8" type="car" depart="16.00" departSpeed="7.3995" speedFactor="1.0000" routeLength="634.23">
        <routeDistribution>
            <route cost="0.00" savings="0.00" replacedOnEdge="A0A1" reason="parkA0A1:parkingAreaReroute" replacedAtTime="16.00" probability="0" edges="A0A1" routeLength="87.00"/>
            <route cost="62.00" savings="-55.19" replacedOnEdge="B1B2" replacedOnIndex="2" reason="parkB1B2:parkingAreaReroute" replacedAtTime="34.00" probability="0" edges="A0A1 A1B1 B1B2 B2B1 B1B0 B0A0 A0A1" routeLength="670.42"/>
            <route cost="55.60" savings="-9.40" replacedOnEdge="B2B3" replacedOnIndex="3" reason="parkB2B3:parkingAreaReroute" replacedAtTime="46.00" probability="0" edges="A0A1 A1B1 B1B2 B2B3 B3B2 B2B1 B1B0 B0A0 A0A1" routeLength="870.41"/>
            <route cost="77.53" savings="-29.07" edges="A0A1 A1B1 B1B2 B2B3 B3B2 B2A2 A2A3 A3B3 B3B2 B2B1 B1B0 B0A0 A0A1" exitTimes="24.00 33.00 40.00 53.00 60.00 68.00 -1 -1 -1 -1 -1 -1 -1"/>
        </routeDistribution>
        <stop parkingArea="parkA2A3" duration="3600.00" started="74.00" ended="-1"/>
    </vehicle>

    <vehicle id="ego.9" type="car" depart="18.00" departSpeed="9.9657" speedFactor="1.0000" routeLength="2287.53">
        <routeDistribution>
            <route cost="0.00" savings="0.00" replacedOnEdge="A0A1" reason="parkA0A1:parkingAreaReroute" replacedAtTime="18.00" probability="0" edges="A0A1" routeLength="87.00"/>
            <route cost="52.01" savings="-45.18" replacedOnEdge="A1A2" replacedOnIndex="1" reason="parkA1A2:parkingAreaReroute" replacedAtTime="26.00" probability="0" edges="A0A1 A1A2 A2B2 B2B1 B1B0 B0A0 A0A1" routeLength="669.98"/>
            <route cost="79.84" savings="-35.28" replacedOnEdge="C2C3" replacedOnIndex="4" reason="parkC2C3:parkingAreaReroute" replacedAtTime="52.00" probability="0" edges="A0A1 A1A2 A2B2 B2C2 C2C3 C3B3 B3B2 B2B1 B1B0 B0A0 A0A1" routeLength="1076.66"/>
            <route cost="75.78" savings="-20.16" replacedOnEdge="B2B3" replacedOnIndex="7" reason="parkB2B3:parkingAreaReroute" replacedAtTime="74.00" probability="0" edges="A0A1 A1A2 A2B2 B2C2 C2C3 C3C2 C2B2 B2B3 B3B2 B2B1 B1B0 B0A0 A0A1" routeLength="1256.88"/>
            <route cost="82.47" savings="-33.84" replacedOnEdge="B1B2" replacedOnIndex="10" reason="parkB1B2:parkingAreaReroute" replacedAtTime="97.00" probability="0" edges="A0A1 A1A2 A2B2 B2C2 C2C3 C3C2 C2B2 B2B3 B3B2 B2B1 B1B2 B2B1 B1B0 B0A0 A0A1" routeLength="1447.44"/>
            <route cost="69.20" savings="-22.90" replacedOnEdge="A2A3" replacedOnIndex="12" reason="parkA2A3:parkingAreaReroute" replacedAtTime="113.00" probability="0" edges="A0A1 A1A2 A2B2 B2C2 C2C3 C3C2 C2B2 B2B3 B3B2 B2B1 B1B2 B2A2 A2A3 A3B3 B3B2 B2B1 B1B0 B0A0 A0A1" routeLength="1840.30"/>
            <route cost="50.46" savings="0.00" replacedOnEdge="A0A1" replacedOnIndex="18" reason="parkA0A1:parkingAreaReroute" replacedAtTime="156.00" probability="0" edges="A0A1 A1A2 A2B2 B2C2 C2C3 C3C2 C2B2 B2B3 B3B2 B2B1 B1B2 B2A2 A2A3 A3B3 B3B2 B2B1 B1B0 B0A0 A0A1" routeLength="1840.30"/>
            <route cost="66.80" savings="-59.97" replacedOnEdge="B0B1" replacedOnIndex="21" reason="parkB0B1:parkingAreaReroute" replacedAtTime="179.00" probability="0" edges="A0A1 A1A2 A2B2 B2C2 C2C3 C3C2 C2B2 B2B3 B3B2 B2B1 B1B2 B2A2 A2A3 A3B3 B3B2 B2B1 B1B0 B0A0 A0A1 A1B1 B1B0 B0B1 B1B0 B0A0 A0A1" routeLength="2413.83"/>
            <route cost="64.29" savings="-25.09" edges="A0A1 A1A2 A2B2 B2C2 C2C3 C3C2 C2B2 B2B3 B3B2 B2B1 B1B2 B2A2 A2A3 A3B3 B3B2 B2B1 B1B0 B0A0 A0A1 A1B1 B1B0 B0B1 B1C1 C1C2 C2B2 B2B1 B1B0 B0A0 A0A1" exitTimes="25.00 32.00 41.00 51.00 59.00 66.00 74.00 82.00 89.00 97.00 104.00 113.00 120.00 127.00 134.00 141.00 149.00 156.00 163.00 171.00 179.00 186.00 194.00 -1 -1 -1 -1 -1 -1"/>
        </routeDistribution>
        <stop parkingArea="parkC1C2" duration="3600.00" started="201.00" ended="-1"/>
    </vehicle>

</routes>
