<?xml version="1.0" encoding="UTF-8"?>

<!-- generated on 11/28/17 15:34:36 by SUMO Version dev-SVN-r26691
<?xml version="1.0" encoding="UTF-8"?>

<configuration xmlns:xsi="http://www.w3.org/2001/XMLSchema-instance" xsi:noNamespaceSchemaLocation="http://sumo.dlr.de/xsd/sumoConfiguration.xsd">

    <input>
        <net-file value="input_net.net.xml"/>
        <route-files value="random\flows.tools"/>
        <additional-files value="random\routes.tools,add.xml"/>
    </input>

</configuration>
-->

<meandata xmlns:xsi="http://www.w3.org/2001/XMLSchema-instance" xsi:noNamespaceSchemaLocation="http://sumo.dlr.de/xsd/meandata_file.xsd">
    <interval begin="0.00" end="3629.00" id="all">
        <edge id="1" sampledSeconds="562.63" traveltime="3.69" overlapTraveltime="3.87" density="1.55" occupancy="0.26" waitingTime="0.00" speed="27.12" departed="2000" arrived="0" entered="0" left="2000" laneChangedFrom="0" laneChangedTo="0"/>
        <edge id="2" sampledSeconds="7440.98" traveltime="3.52" overlapTraveltime="3.72" density="22.28" occupancy="5.28" waitingTime="0.00" speed="26.08" departed="0" arrived="0" entered="2000" left="2000" laneChangedFrom="0" laneChangedTo="0"/>
        <edge id="3" sampledSeconds="12745.03" traveltime="4.87" overlapTraveltime="5.10" density="32.67" occupancy="5.20" waitingTime="0.00" speed="22.07" departed="0" arrived="0" entered="2500" left="2500" laneChangedFrom="782" laneChangedTo="782"/>
        <edge id="4" sampledSeconds="7163.31" traveltime="3.42" overlapTraveltime="3.61" density="21.47" occupancy="5.09" waitingTime="0.00" speed="26.87" departed="0" arrived="0" entered="1985" left="1985" laneChangedFrom="4" laneChangedTo="4"/>
        <edge id="5" sampledSeconds="7698.12" traveltime="3.69" overlapTraveltime="3.88" density="21.20" occupancy="5.05" waitingTime="0.00" speed="27.09" departed="0" arrived="0" entered="1985" left="1985" laneChangedFrom="0" laneChangedTo="0"/>
        <edge id="6" sampledSeconds="7106.50" traveltime="3.40" overlapTraveltime="3.58" density="21.28" occupancy="5.05" waitingTime="0.00" speed="27.10" departed="0" arrived="0" entered="1985" left="1985" laneChangedFrom="0" laneChangedTo="0"/>
        <edge id="7" sampledSeconds="8240.69" traveltime="3.97" overlapTraveltime="4.15" density="21.12" occupancy="3.36" waitingTime="0.00" speed="27.10" departed="0" arrived="0" entered="1985" left="1985" laneChangedFrom="0" laneChangedTo="0"/>
        <edge id="8" sampledSeconds="7108.30" traveltime="3.40" overlapTraveltime="3.58" density="21.29" occupancy="5.05" waitingTime="0.00" speed="27.09" departed="0" arrived="0" entered="1985" left="1985" laneChangedFrom="0" laneChangedTo="0"/>
        <edge id="9" sampledSeconds="7663.53" traveltime="3.69" overlapTraveltime="3.87" density="21.12" occupancy="5.04" waitingTime="0.00" speed="27.10" departed="0" arrived="1985" entered="1985" left="0" laneChangedFrom="0" laneChangedTo="0"/>
        <edge id="off3" sampledSeconds="5193.38" traveltime="9.78" overlapTraveltime="10.15" density="11.07" occupancy="5.36" waitingTime="0.00" speed="13.22" departed="0" arrived="515" entered="515" left="0" laneChangedFrom="0" laneChangedTo="0"/>
        <edge id="off7" sampledSeconds="0.00" departed="0" arrived="0" entered="0" left="0" laneChangedFrom="0" laneChangedTo="0"/>
        <edge id="on3" sampledSeconds="192.86" traveltime="9.77" overlapTraveltime="10.15" density="0.41" occupancy="0.10" waitingTime="0.00" speed="13.22" departed="500" arrived="0" entered="0" left="500" laneChangedFrom="0" laneChangedTo="0"/>
        <edge id="on7" sampledSeconds="0.00" departed="0" arrived="0" entered="0" left="0" laneChangedFrom="0" laneChangedTo="0"/>
    </interval>
</meandata>
