<?xml version="1.0" encoding="UTF-8"?>

<!-- generated on 2021-12-08 16:17:32 by Eclipse SUMO sumo Version v1_11_0+0412-34d58d1fd32
This data file and the accompanying materials
are made available under the terms of the Eclipse Public License v2.0
which accompanies this distribution, and is available at
http://www.eclipse.org/legal/epl-v20.html
SPDX-License-Identifier: EPL-2.0
<configuration xmlns:xsi="http://www.w3.org/2001/XMLSchema-instance" xsi:noNamespaceSchemaLocation="http://sumo.dlr.de/xsd/sumoConfiguration.xsd">

    <input>
        <net-file value="net.net.xml"/>
        <additional-files value="input_routes.rou.xml,input_additional.add.xml,input_additional2.add.xml"/>
    </input>

    <output>
        <write-license value="true"/>
    </output>

    <time>
        <begin value="0"/>
        <end value="1000"/>
    </time>

    <processing>
        <default.speeddev value="0"/>
    </processing>

    <report>
        <xml-validation value="never"/>
        <xml-validation.routes value="never"/>
        <duration-log.disable value="true"/>
        <no-step-log value="true"/>
    </report>

</configuration>
-->

<meandata xmlns:xsi="http://www.w3.org/2001/XMLSchema-instance" xsi:noNamespaceSchemaLocation="http://sumo.dlr.de/xsd/meandata_file.xsd">
    <interval begin="0.00" end="600.00" id="dump_60">
        <edge id="2/1to1/1" sampledSeconds="222.00" overlapTraveltime="100000.00" density="0.93" laneDensity="0.93" occupancy="0.46" waitingTime="222.00" timeLoss="0.00" speed="0.00" speedRelative="0.00" departed="0" arrived="0" entered="1" left="0" laneChangedFrom="0" laneChangedTo="0"/>
        <edge id="3/1to2/1" sampledSeconds="10166.36" traveltime="609.69" overlapTraveltime="617.32" density="42.36" laneDensity="42.36" occupancy="21.17" waitingTime="9273.00" timeLoss="9499.38" speed="0.66" speedRelative="0.07" departed="0" arrived="0" entered="20" left="1" laneChangedFrom="0" laneChangedTo="0" teleported="1"/>
        <edge id="4/1to3/1" sampledSeconds="652.25" traveltime="42.78" overlapTraveltime="43.31" density="2.72" laneDensity="2.72" occupancy="1.35" waitingTime="0.00" timeLoss="42.25" speed="9.35" speedRelative="0.94" departed="20" arrived="0" entered="0" left="20" laneChangedFrom="0" laneChangedTo="0"/>
    </interval>
    <interval begin="600.00" end="1000.00" id="dump_60">
        <edge id="1/1to0/1" sampledSeconds="42.00" traveltime="42.47" overlapTraveltime="42.99" density="0.26" laneDensity="0.26" occupancy="0.13" waitingTime="0.00" timeLoss="2.44" speed="9.42" speedRelative="0.94" departed="0" arrived="1" entered="1" left="0" laneChangedFrom="0" laneChangedTo="0"/>
        <edge id="2/1to1/1" sampledSeconds="96.00" overlapTraveltime="100000.00" density="0.60" laneDensity="0.60" occupancy="0.30" waitingTime="96.00" timeLoss="0.00" speed="0.00" speedRelative="0.00" departed="0" arrived="0" entered="1" left="1" laneChangedFrom="0" laneChangedTo="0" teleported="1"/>
        <edge id="3/1to2/1" sampledSeconds="7583.00" traveltime="27748.94" overlapTraveltime="28095.81" density="47.39" laneDensity="47.39" occupancy="23.70" waitingTime="7357.00" timeLoss="7572.07" speed="0.01" speedRelative="0.00" departed="0" arrived="0" entered="0" left="1" laneChangedFrom="0" laneChangedTo="0" teleported="1"/>
    </interval>
</meandata>
