<?xml version="1.0" encoding="UTF-8"?>

<!-- generated on 2025-11-02T19:25:03.495659+01:00 by Eclipse SUMO sumo v1_24_0+1713-b6716327859
This data file and the accompanying materials
are made available under the terms of the Eclipse Public License v2.0
which accompanies this distribution, and is available at
http://www.eclipse.org/legal/epl-v20.html
This file may also be made available under the following Secondary
Licenses when the conditions for such availability set forth in the Eclipse
Public License 2.0 are satisfied: GNU General Public License, version 2
or later which is available at
https://www.gnu.org/licenses/old-licenses/gpl-2.0-standalone.html
SPDX-License-Identifier: EPL-2.0 OR GPL-2.0-or-later
<sumoConfiguration xmlns:xsi="http://www.w3.org/2001/XMLSchema-instance" xsi:noNamespaceSchemaLocation="http://sumo.dlr.de/xsd/sumoConfiguration.xsd">

    <input>
        <net-file value="net.net.xml"/>
        <route-files value="input_routes.rou.xml"/>
        <additional-files value="input_additional.add.xml,input_additional2.add.xml"/>
    </input>

    <output>
        <write-license value="true"/>
        <tripinfo-output.write-unfinished value="true"/>
    </output>

    <time>
        <begin value="0"/>
        <end value="300"/>
        <step-length value="0.1"/>
    </time>

    <processing>
        <default.speeddev value="0"/>
    </processing>

    <report>
        <xml-validation value="never"/>
        <duration-log.statistics value="true"/>
        <no-step-log value="true"/>
    </report>

</sumoConfiguration>
-->

<meandata xmlns:xsi="http://www.w3.org/2001/XMLSchema-instance" xsi:noNamespaceSchemaLocation="http://sumo.dlr.de/xsd/meandata_file.xsd">
    <interval begin="0.00" end="6.00" id="dump_6">
        <edge id="1/1to2/1" sampledSeconds="14.97" traveltime="34.71" overlapTraveltime="32.70" density="20.05" overlapDensity="25.95" laneDensity="20.05" occupancy="11.75" waitingTime="0.00" timeLoss="12.60" speed="3.09" speedRelative="0.16" departed="6" arrived="0" entered="0" left="3" laneChangedFrom="0" laneChangedTo="0"/>
        <edge id="2/1to3/1" sampledSeconds="6.41" traveltime="12.49" overlapTraveltime="13.14" density="11.11" overlapDensity="11.11" laneDensity="11.11" occupancy="4.58" waitingTime="0.00" timeLoss="3.89" speed="7.70" speedRelative="0.39" departed="0" arrived="0" entered="3" left="0" laneChangedFrom="0" laneChangedTo="0"/>
    </interval>
    <interval begin="6.00" end="12.00" id="dump_6">
        <edge id="1/1to2/1" sampledSeconds="30.34" traveltime="18.52" overlapTraveltime="18.42" density="49.48" overlapDensity="52.61" laneDensity="49.48" occupancy="25.54" waitingTime="0.00" timeLoss="21.84" speed="5.49" speedRelative="0.28" departed="6" arrived="0" entered="0" left="4" laneChangedFrom="0" laneChangedTo="0"/>
        <edge id="2/1to3/1" sampledSeconds="24.55" traveltime="6.75" overlapTraveltime="7.05" density="41.67" overlapDensity="42.57" laneDensity="41.67" occupancy="20.29" waitingTime="0.00" timeLoss="6.58" speed="14.35" speedRelative="0.73" departed="0" arrived="0" entered="3" left="2" laneChangedFrom="0" laneChangedTo="0"/>
        <edge id="3/1to4/1" sampledSeconds="2.36" traveltime="4.95" overlapTraveltime="5.20" density="4.09" overlapDensity="4.09" laneDensity="4.09" occupancy="1.82" waitingTime="0.00" timeLoss="0.02" speed="19.43" speedRelative="0.99" departed="0" arrived="0" entered="2" left="0" laneChangedFrom="0" laneChangedTo="0"/>
    </interval>
    <interval begin="12.00" end="18.00" id="dump_6">
        <edge id="1/1to2/1" sampledSeconds="40.97" traveltime="13.42" overlapTraveltime="13.61" density="68.28" overlapDensity="71.03" laneDensity="68.28" occupancy="34.53" waitingTime="0.00" timeLoss="25.43" speed="7.43" speedRelative="0.38" departed="6" arrived="0" entered="0" left="4" laneChangedFrom="0" laneChangedTo="0"/>
        <edge id="2/1to3/1" sampledSeconds="26.68" traveltime="5.63" overlapTraveltime="5.90" density="44.14" overlapDensity="46.26" laneDensity="44.14" occupancy="21.92" waitingTime="0.00" timeLoss="3.34" speed="17.15" speedRelative="0.87" departed="0" arrived="0" entered="5" left="5" laneChangedFrom="0" laneChangedTo="0"/>
        <edge id="3/1to4/1" sampledSeconds="21.03" traveltime="5.02" overlapTraveltime="5.28" density="35.21" overlapDensity="36.47" laneDensity="35.21" occupancy="17.48" waitingTime="0.00" timeLoss="0.48" speed="19.15" speedRelative="0.98" departed="0" arrived="0" entered="4" left="3" laneChangedFrom="0" laneChangedTo="0"/>
        <edge id="4/1to5/1" sampledSeconds="4.18" traveltime="4.93" overlapTraveltime="5.19" density="7.24" overlapDensity="7.24" laneDensity="7.24" occupancy="3.36" waitingTime="0.00" timeLoss="0.02" speed="19.49" speedRelative="0.99" departed="0" arrived="0" entered="3" left="0" laneChangedFrom="0" laneChangedTo="0"/>
    </interval>
    <interval begin="18.00" end="24.00" id="dump_6">
        <edge id="1/1to2/1" sampledSeconds="35.81" traveltime="9.62" overlapTraveltime="9.90" density="59.98" overlapDensity="62.08" laneDensity="59.98" occupancy="27.67" waitingTime="0.00" timeLoss="17.14" speed="10.22" speedRelative="0.52" departed="2" arrived="0" entered="0" left="4" laneChangedFrom="0" laneChangedTo="0"/>
        <edge id="2/1to3/1" sampledSeconds="25.21" traveltime="5.42" overlapTraveltime="5.69" density="41.61" overlapDensity="43.70" laneDensity="41.61" occupancy="20.73" waitingTime="0.00" timeLoss="2.36" speed="17.76" speedRelative="0.91" departed="0" arrived="0" entered="4" left="4" laneChangedFrom="0" laneChangedTo="0"/>
        <edge id="3/1to4/1" sampledSeconds="24.13" traveltime="5.14" overlapTraveltime="5.40" density="39.94" overlapDensity="41.84" laneDensity="39.94" occupancy="19.84" waitingTime="0.00" timeLoss="1.07" speed="18.73" speedRelative="0.96" departed="0" arrived="0" entered="5" left="4" laneChangedFrom="0" laneChangedTo="0"/>
        <edge id="4/1to5/1" sampledSeconds="22.14" traveltime="4.97" overlapTraveltime="5.23" density="37.05" overlapDensity="38.39" laneDensity="37.05" occupancy="18.33" waitingTime="0.00" timeLoss="0.30" speed="19.34" speedRelative="0.99" departed="0" arrived="0" entered="4" left="3" laneChangedFrom="0" laneChangedTo="0"/>
        <edge id="5/1to6/1" sampledSeconds="6.88" traveltime="4.93" overlapTraveltime="5.19" density="11.92" overlapDensity="11.92" laneDensity="11.92" occupancy="5.63" waitingTime="0.00" timeLoss="0.03" speed="19.50" speedRelative="1.00" departed="0" arrived="0" entered="3" left="0" laneChangedFrom="0" laneChangedTo="0"/>
    </interval>
    <interval begin="24.00" end="30.00" id="dump_6">
        <edge id="1/1to2/1" sampledSeconds="25.00" traveltime="9.45" overlapTraveltime="9.70" density="41.88" overlapDensity="43.34" laneDensity="41.88" occupancy="18.85" waitingTime="0.00" timeLoss="11.70" speed="10.42" speedRelative="0.53" departed="2" arrived="0" entered="0" left="3" laneChangedFrom="0" laneChangedTo="0"/>
        <edge id="2/1to3/1" sampledSeconds="23.34" traveltime="5.38" overlapTraveltime="5.65" density="38.57" overlapDensity="40.47" laneDensity="38.57" occupancy="19.39" waitingTime="0.00" timeLoss="2.03" speed="17.89" speedRelative="0.91" departed="0" arrived="0" entered="3" left="4" laneChangedFrom="0" laneChangedTo="0"/>
        <edge id="3/1to4/1" sampledSeconds="24.02" traveltime="5.17" overlapTraveltime="5.44" density="39.73" overlapDensity="41.65" laneDensity="39.73" occupancy="19.89" waitingTime="0.00" timeLoss="1.22" speed="18.61" speedRelative="0.95" departed="0" arrived="0" entered="4" left="5" laneChangedFrom="0" laneChangedTo="0"/>
        <edge id="4/1to5/1" sampledSeconds="23.40" traveltime="5.03" overlapTraveltime="5.29" density="38.33" overlapDensity="40.57" laneDensity="38.33" occupancy="19.26" waitingTime="0.00" timeLoss="0.57" speed="19.13" speedRelative="0.98" departed="0" arrived="0" entered="4" left="5" laneChangedFrom="0" laneChangedTo="0"/>
        <edge id="5/1to6/1" sampledSeconds="22.53" traveltime="4.95" overlapTraveltime="5.20" density="37.29" overlapDensity="39.07" laneDensity="37.29" occupancy="18.56" waitingTime="0.00" timeLoss="0.19" speed="19.43" speedRelative="0.99" departed="0" arrived="0" entered="5" left="4" laneChangedFrom="0" laneChangedTo="0"/>
        <edge id="6/1to7/1" sampledSeconds="10.07" traveltime="4.93" overlapTraveltime="5.18" density="17.47" overlapDensity="17.47" laneDensity="17.47" occupancy="8.29" waitingTime="0.00" timeLoss="0.04" speed="19.52" speedRelative="1.00" departed="0" arrived="0" entered="4" left="0" laneChangedFrom="0" laneChangedTo="0"/>
    </interval>
    <interval begin="30.00" end="36.00" id="dump_6">
        <edge id="1/1to2/1" sampledSeconds="23.65" traveltime="9.77" overlapTraveltime="9.96" density="39.67" overlapDensity="41.01" laneDensity="39.67" occupancy="17.82" waitingTime="0.00" timeLoss="11.40" speed="10.16" speedRelative="0.52" departed="3" arrived="0" entered="0" left="3" laneChangedFrom="0" laneChangedTo="0"/>
        <edge id="2/1to3/1" sampledSeconds="13.89" traveltime="5.00" overlapTraveltime="5.27" density="22.22" overlapDensity="24.08" laneDensity="22.22" occupancy="11.24" waitingTime="0.00" timeLoss="0.30" speed="19.17" speedRelative="0.98" departed="0" arrived="0" entered="3" left="4" laneChangedFrom="0" laneChangedTo="0"/>
        <edge id="3/1to4/1" sampledSeconds="22.40" traveltime="5.17" overlapTraveltime="5.43" density="36.62" overlapDensity="38.84" laneDensity="36.62" occupancy="18.38" waitingTime="0.00" timeLoss="1.12" speed="18.62" speedRelative="0.95" departed="0" arrived="0" entered="4" left="4" laneChangedFrom="0" laneChangedTo="0"/>
        <edge id="4/1to5/1" sampledSeconds="23.35" traveltime="5.06" overlapTraveltime="5.32" density="38.68" overlapDensity="40.49" laneDensity="38.68" occupancy="19.22" waitingTime="0.00" timeLoss="0.69" speed="19.02" speedRelative="0.97" departed="0" arrived="0" entered="5" left="4" laneChangedFrom="0" laneChangedTo="0"/>
        <edge id="5/1to6/1" sampledSeconds="23.10" traveltime="4.98" overlapTraveltime="5.24" density="38.26" overlapDensity="40.04" laneDensity="38.26" occupancy="19.09" waitingTime="0.00" timeLoss="0.34" speed="19.31" speedRelative="0.99" departed="0" arrived="0" entered="4" left="4" laneChangedFrom="0" laneChangedTo="0"/>
        <edge id="6/1to7/1" sampledSeconds="22.82" traveltime="4.94" overlapTraveltime="5.19" density="37.52" overlapDensity="39.56" laneDensity="37.52" occupancy="18.85" waitingTime="0.00" timeLoss="0.15" speed="19.47" speedRelative="0.99" departed="0" arrived="0" entered="4" left="5" laneChangedFrom="0" laneChangedTo="0"/>
        <edge id="7/1to8/1" sampledSeconds="13.41" traveltime="4.92" overlapTraveltime="5.18" density="22.81" overlapDensity="23.26" laneDensity="22.81" occupancy="11.07" waitingTime="0.00" timeLoss="0.05" speed="19.53" speedRelative="1.00" departed="0" arrived="0" entered="4" left="1" laneChangedFrom="0" laneChangedTo="0"/>
        <edge id="8/1to9/1" sampledSeconds="0.42" traveltime="4.92" overlapTraveltime="5.17" density="0.73" overlapDensity="0.73" laneDensity="0.73" occupancy="0.25" waitingTime="0.00" timeLoss="0.00" speed="19.54" speedRelative="1.00" departed="0" arrived="0" entered="1" left="0" laneChangedFrom="0" laneChangedTo="0"/>
    </interval>
    <interval begin="36.00" end="42.00" id="dump_6">
        <edge id="1/1to2/1" sampledSeconds="23.80" traveltime="9.81" overlapTraveltime="10.11" density="40.37" overlapDensity="41.27" laneDensity="40.37" occupancy="17.69" waitingTime="0.00" timeLoss="11.65" speed="10.00" speedRelative="0.51" departed="2" arrived="0" entered="0" left="2" laneChangedFrom="0" laneChangedTo="0"/>
        <edge id="2/1to3/1" sampledSeconds="12.30" traveltime="4.92" overlapTraveltime="5.18" density="20.43" overlapDensity="21.32" laneDensity="20.43" occupancy="10.22" waitingTime="0.00" timeLoss="0.04" speed="19.53" speedRelative="1.00" departed="0" arrived="0" entered="2" left="2" laneChangedFrom="0" laneChangedTo="0"/>
        <edge id="3/1to4/1" sampledSeconds="13.54" traveltime="4.96" overlapTraveltime="5.22" density="22.12" overlapDensity="23.48" laneDensity="22.12" occupancy="11.18" waitingTime="0.00" timeLoss="0.17" speed="19.36" speedRelative="0.99" departed="0" arrived="0" entered="2" left="3" laneChangedFrom="0" laneChangedTo="0"/>
        <edge id="4/1to5/1" sampledSeconds="21.58" traveltime="5.06" overlapTraveltime="5.32" density="35.59" overlapDensity="37.41" laneDensity="35.59" occupancy="17.91" waitingTime="0.00" timeLoss="0.64" speed="19.02" speedRelative="0.97" departed="0" arrived="0" entered="3" left="4" laneChangedFrom="0" laneChangedTo="0"/>
        <edge id="5/1to6/1" sampledSeconds="23.11" traveltime="5.00" overlapTraveltime="5.26" density="37.82" overlapDensity="40.06" laneDensity="37.82" occupancy="19.02" waitingTime="0.00" timeLoss="0.43" speed="19.24" speedRelative="0.98" departed="0" arrived="0" entered="4" left="5" laneChangedFrom="0" laneChangedTo="0"/>
        <edge id="6/1to7/1" sampledSeconds="22.64" traveltime="4.95" overlapTraveltime="5.21" density="37.29" overlapDensity="39.25" laneDensity="37.29" occupancy="18.57" waitingTime="0.00" timeLoss="0.22" speed="19.41" speedRelative="0.99" departed="0" arrived="0" entered="5" left="4" laneChangedFrom="0" laneChangedTo="0"/>
        <edge id="7/1to8/1" sampledSeconds="22.75" traveltime="4.93" overlapTraveltime="5.19" density="37.66" overlapDensity="39.44" laneDensity="37.66" occupancy="18.72" waitingTime="0.00" timeLoss="0.11" speed="19.50" speedRelative="0.99" departed="0" arrived="0" entered="5" left="4" laneChangedFrom="0" laneChangedTo="0"/>
        <edge id="8/1to9/1" sampledSeconds="16.66" traveltime="4.92" overlapTraveltime="5.18" density="28.24" overlapDensity="28.89" laneDensity="28.24" occupancy="13.87" waitingTime="0.00" timeLoss="0.06" speed="19.52" speedRelative="1.00" departed="0" arrived="0" entered="4" left="2" laneChangedFrom="0" laneChangedTo="0"/>
        <edge id="9/1to10/1" sampledSeconds="1.34" traveltime="4.92" overlapTraveltime="5.18" density="2.33" overlapDensity="2.33" laneDensity="2.33" occupancy="1.05" waitingTime="0.00" timeLoss="0.00" speed="19.54" speedRelative="1.00" departed="0" arrived="0" entered="1" left="0" laneChangedFrom="0" laneChangedTo="0"/>
    </interval>
    <interval begin="42.00" end="48.00" id="dump_6">
        <edge id="1/1to2/1" sampledSeconds="23.78" traveltime="9.47" overlapTraveltime="9.75" density="40.21" overlapDensity="41.22" laneDensity="40.21" occupancy="18.13" waitingTime="0.00" timeLoss="11.19" speed="10.38" speedRelative="0.53" departed="2" arrived="0" entered="0" left="3" laneChangedFrom="0" laneChangedTo="0"/>
        <edge id="10/1to1/1" sampledSeconds="3.16" traveltime="4.93" overlapTraveltime="5.19" density="5.47" overlapDensity="5.47" laneDensity="5.47" occupancy="2.51" waitingTime="0.00" timeLoss="0.02" speed="19.49" speedRelative="0.99" departed="0" arrived="0" entered="2" left="0" laneChangedFrom="0" laneChangedTo="0"/>
        <edge id="2/1to3/1" sampledSeconds="12.38" traveltime="4.92" overlapTraveltime="5.18" density="20.37" overlapDensity="21.46" laneDensity="20.37" occupancy="10.26" waitingTime="0.00" timeLoss="0.04" speed="19.54" speedRelative="1.00" departed="0" arrived="0" entered="2" left="3" laneChangedFrom="0" laneChangedTo="0"/>
        <edge id="3/1to4/1" sampledSeconds="12.30" traveltime="4.92" overlapTraveltime="5.18" density="20.33" overlapDensity="21.32" laneDensity="20.33" occupancy="10.21" waitingTime="0.00" timeLoss="0.04" speed="19.53" speedRelative="1.00" departed="0" arrived="0" entered="2" left="3" laneChangedFrom="0" laneChangedTo="0"/>
        <edge id="4/1to5/1" sampledSeconds="12.91" traveltime="4.93" overlapTraveltime="5.19" density="21.03" overlapDensity="22.38" laneDensity="21.03" occupancy="10.63" waitingTime="0.00" timeLoss="0.09" speed="19.47" speedRelative="0.99" departed="0" arrived="0" entered="2" left="3" laneChangedFrom="0" laneChangedTo="0"/>
        <edge id="5/1to6/1" sampledSeconds="20.17" traveltime="5.00" overlapTraveltime="5.25" density="33.18" overlapDensity="34.98" laneDensity="33.18" occupancy="16.70" waitingTime="0.00" timeLoss="0.36" speed="19.25" speedRelative="0.98" departed="0" arrived="0" entered="3" left="4" laneChangedFrom="0" laneChangedTo="0"/>
        <edge id="6/1to7/1" sampledSeconds="22.96" traveltime="4.97" overlapTraveltime="5.22" density="38.02" overlapDensity="39.80" laneDensity="38.02" occupancy="18.98" waitingTime="0.00" timeLoss="0.28" speed="19.36" speedRelative="0.99" departed="0" arrived="0" entered="4" left="4" laneChangedFrom="0" laneChangedTo="0"/>
        <edge id="7/1to8/1" sampledSeconds="22.82" traveltime="4.94" overlapTraveltime="5.20" density="37.45" overlapDensity="39.56" laneDensity="37.45" occupancy="18.83" waitingTime="0.00" timeLoss="0.17" speed="19.46" speedRelative="0.99" departed="0" arrived="0" entered="4" left="5" laneChangedFrom="0" laneChangedTo="0"/>
        <edge id="8/1to9/1" sampledSeconds="22.40" traveltime="4.93" overlapTraveltime="5.19" density="36.82" overlapDensity="38.83" laneDensity="36.82" occupancy="18.41" waitingTime="0.00" timeLoss="0.11" speed="19.50" speedRelative="1.00" departed="0" arrived="0" entered="5" left="4" laneChangedFrom="0" laneChangedTo="0"/>
        <edge id="9/1to10/1" sampledSeconds="19.08" traveltime="4.92" overlapTraveltime="5.18" density="32.19" overlapDensity="33.08" laneDensity="32.19" occupancy="15.76" waitingTime="0.00" timeLoss="0.07" speed="19.53" speedRelative="1.00" departed="0" arrived="0" entered="5" left="2" laneChangedFrom="0" laneChangedTo="0"/>
    </interval>
    <interval begin="48.00" end="54.00" id="dump_6">
        <edge id="1/1to2/1" sampledSeconds="17.38" traveltime="6.90" overlapTraveltime="7.14" density="28.93" overlapDensity="30.14" laneDensity="28.93" occupancy="14.47" waitingTime="0.00" timeLoss="4.83" speed="14.16" speedRelative="0.72" departed="0" arrived="0" entered="2" left="2" laneChangedFrom="0" laneChangedTo="0"/>
        <edge id="10/1to1/1" sampledSeconds="21.56" traveltime="5.76" overlapTraveltime="6.07" density="36.27" overlapDensity="37.37" laneDensity="36.27" occupancy="17.91" waitingTime="0.00" timeLoss="3.23" speed="16.66" speedRelative="0.85" departed="0" arrived="0" entered="4" left="2" laneChangedFrom="0" laneChangedTo="0"/>
        <edge id="2/1to3/1" sampledSeconds="12.67" traveltime="4.92" overlapTraveltime="5.18" density="20.85" overlapDensity="21.97" laneDensity="20.85" occupancy="10.34" waitingTime="0.00" timeLoss="0.04" speed="19.53" speedRelative="1.00" departed="0" arrived="0" entered="3" left="2" laneChangedFrom="0" laneChangedTo="0"/>
        <edge id="3/1to4/1" sampledSeconds="12.43" traveltime="4.92" overlapTraveltime="5.18" density="20.32" overlapDensity="21.55" laneDensity="20.32" occupancy="10.12" waitingTime="0.00" timeLoss="0.04" speed="19.54" speedRelative="1.00" departed="0" arrived="0" entered="3" left="2" laneChangedFrom="0" laneChangedTo="0"/>
        <edge id="4/1to5/1" sampledSeconds="12.46" traveltime="4.92" overlapTraveltime="5.18" density="20.27" overlapDensity="21.60" laneDensity="20.27" occupancy="10.13" waitingTime="0.00" timeLoss="0.04" speed="19.54" speedRelative="1.00" departed="0" arrived="0" entered="3" left="3" laneChangedFrom="0" laneChangedTo="0"/>
        <edge id="5/1to6/1" sampledSeconds="12.95" traveltime="4.92" overlapTraveltime="5.18" density="21.12" overlapDensity="22.46" laneDensity="21.12" occupancy="10.56" waitingTime="0.00" timeLoss="0.05" speed="19.52" speedRelative="1.00" departed="0" arrived="0" entered="3" left="3" laneChangedFrom="0" laneChangedTo="0"/>
        <edge id="6/1to7/1" sampledSeconds="19.37" traveltime="4.99" overlapTraveltime="5.25" density="31.32" overlapDensity="33.58" laneDensity="31.32" occupancy="15.89" waitingTime="0.00" timeLoss="0.33" speed="19.27" speedRelative="0.98" departed="0" arrived="0" entered="3" left="5" laneChangedFrom="0" laneChangedTo="0"/>
        <edge id="7/1to8/1" sampledSeconds="22.67" traveltime="5.05" overlapTraveltime="5.31" density="37.36" overlapDensity="39.31" laneDensity="37.36" occupancy="18.63" waitingTime="0.00" timeLoss="0.64" speed="19.05" speedRelative="0.97" departed="0" arrived="0" entered="5" left="4" laneChangedFrom="0" laneChangedTo="0"/>
        <edge id="8/1to9/1" sampledSeconds="22.98" traveltime="5.13" overlapTraveltime="5.40" density="37.96" overlapDensity="39.84" laneDensity="37.96" occupancy="18.91" waitingTime="0.00" timeLoss="1.03" speed="18.72" speedRelative="0.96" departed="0" arrived="0" entered="4" left="4" laneChangedFrom="0" laneChangedTo="0"/>
        <edge id="9/1to10/1" sampledSeconds="23.13" traveltime="5.33" overlapTraveltime="5.62" density="38.12" overlapDensity="40.10" laneDensity="38.12" occupancy="19.08" waitingTime="0.00" timeLoss="1.89" speed="18.00" speedRelative="0.92" departed="0" arrived="0" entered="4" left="4" laneChangedFrom="0" laneChangedTo="0"/>
    </interval>
    <interval begin="54.00" end="60.00" id="dump_6">
        <edge id="1/1to2/1" sampledSeconds="23.33" traveltime="5.13" overlapTraveltime="5.39" density="38.65" overlapDensity="40.44" laneDensity="38.65" occupancy="19.23" waitingTime="0.00" timeLoss="1.00" speed="18.76" speedRelative="0.96" departed="0" arrived="0" entered="5" left="4" laneChangedFrom="0" laneChangedTo="0"/>
        <edge id="10/1to1/1" sampledSeconds="23.90" traveltime="5.27" overlapTraveltime="5.54" density="39.07" overlapDensity="41.43" laneDensity="39.07" occupancy="19.65" waitingTime="0.00" timeLoss="1.66" speed="18.24" speedRelative="0.93" departed="0" arrived="0" entered="4" left="5" laneChangedFrom="0" laneChangedTo="0"/>
        <edge id="2/1to3/1" sampledSeconds="14.96" traveltime="4.93" overlapTraveltime="5.18" density="25.04" overlapDensity="25.93" laneDensity="25.04" occupancy="12.30" waitingTime="0.00" timeLoss="0.07" speed="19.51" speedRelative="1.00" departed="0" arrived="0" entered="4" left="2" laneChangedFrom="0" laneChangedTo="0"/>
        <edge id="3/1to4/1" sampledSeconds="12.62" traveltime="4.92" overlapTraveltime="5.18" density="21.00" overlapDensity="21.88" laneDensity="21.00" occupancy="10.50" waitingTime="0.00" timeLoss="0.04" speed="19.53" speedRelative="1.00" departed="0" arrived="0" entered="2" left="2" laneChangedFrom="0" laneChangedTo="0"/>
        <edge id="4/1to5/1" sampledSeconds="12.27" traveltime="4.92" overlapTraveltime="5.17" density="20.38" overlapDensity="21.27" laneDensity="20.38" occupancy="10.19" waitingTime="0.00" timeLoss="0.04" speed="19.54" speedRelative="1.00" departed="0" arrived="0" entered="2" left="2" laneChangedFrom="0" laneChangedTo="0"/>
        <edge id="5/1to6/1" sampledSeconds="12.24" traveltime="4.92" overlapTraveltime="5.18" density="20.33" overlapDensity="21.21" laneDensity="20.33" occupancy="10.16" waitingTime="0.00" timeLoss="0.04" speed="19.53" speedRelative="1.00" departed="0" arrived="0" entered="2" left="2" laneChangedFrom="0" laneChangedTo="0"/>
        <edge id="6/1to7/1" sampledSeconds="12.37" traveltime="4.92" overlapTraveltime="5.18" density="20.54" overlapDensity="21.44" laneDensity="20.54" occupancy="10.27" waitingTime="0.00" timeLoss="0.04" speed="19.53" speedRelative="1.00" departed="0" arrived="0" entered="2" left="2" laneChangedFrom="0" laneChangedTo="0"/>
        <edge id="7/1to8/1" sampledSeconds="18.64" traveltime="5.07" overlapTraveltime="5.34" density="30.45" overlapDensity="32.32" laneDensity="30.45" occupancy="15.43" waitingTime="0.00" timeLoss="0.64" speed="18.93" speedRelative="0.97" departed="0" arrived="0" entered="2" left="4" laneChangedFrom="0" laneChangedTo="0"/>
        <edge id="8/1to9/1" sampledSeconds="23.33" traveltime="5.21" overlapTraveltime="5.48" density="38.56" overlapDensity="40.45" laneDensity="38.56" occupancy="19.29" waitingTime="0.00" timeLoss="1.36" speed="18.46" speedRelative="0.94" departed="0" arrived="0" entered="4" left="4" laneChangedFrom="0" laneChangedTo="0"/>
        <edge id="9/1to10/1" sampledSeconds="23.56" traveltime="5.27" overlapTraveltime="5.54" density="38.85" overlapDensity="40.86" laneDensity="38.85" occupancy="19.47" waitingTime="0.00" timeLoss="1.63" speed="18.24" speedRelative="0.93" departed="0" arrived="0" entered="4" left="5" laneChangedFrom="0" laneChangedTo="0"/>
    </interval>
    <interval begin="60.00" end="66.00" id="dump_6">
        <edge id="1/1to2/1" sampledSeconds="23.41" traveltime="5.07" overlapTraveltime="5.33" density="38.78" overlapDensity="40.59" laneDensity="38.78" occupancy="19.34" waitingTime="0.00" timeLoss="0.76" speed="18.96" speedRelative="0.97" departed="0" arrived="0" entered="4" left="4" laneChangedFrom="0" laneChangedTo="0"/>
        <edge id="10/1to1/1" sampledSeconds="23.34" traveltime="5.13" overlapTraveltime="5.40" density="38.63" overlapDensity="40.47" laneDensity="38.63" occupancy="19.19" waitingTime="0.00" timeLoss="1.02" speed="18.74" speedRelative="0.96" departed="0" arrived="0" entered="5" left="4" laneChangedFrom="0" laneChangedTo="0"/>
        <edge id="2/1to3/1" sampledSeconds="23.18" traveltime="4.98" overlapTraveltime="5.24" density="38.41" overlapDensity="40.19" laneDensity="38.41" occupancy="19.20" waitingTime="0.00" timeLoss="0.34" speed="19.31" speedRelative="0.99" departed="0" arrived="0" entered="4" left="4" laneChangedFrom="0" laneChangedTo="0"/>
        <edge id="3/1to4/1" sampledSeconds="16.59" traveltime="4.93" overlapTraveltime="5.18" density="27.43" overlapDensity="28.76" laneDensity="27.43" occupancy="13.60" waitingTime="0.00" timeLoss="0.07" speed="19.52" speedRelative="1.00" departed="0" arrived="0" entered="4" left="3" laneChangedFrom="0" laneChangedTo="0"/>
        <edge id="4/1to5/1" sampledSeconds="12.59" traveltime="4.92" overlapTraveltime="5.18" density="20.51" overlapDensity="21.84" laneDensity="20.51" occupancy="10.26" waitingTime="0.00" timeLoss="0.04" speed="19.54" speedRelative="1.00" departed="0" arrived="0" entered="3" left="3" laneChangedFrom="0" laneChangedTo="0"/>
        <edge id="5/1to6/1" sampledSeconds="12.53" traveltime="4.92" overlapTraveltime="5.18" density="20.40" overlapDensity="21.73" laneDensity="20.40" occupancy="10.20" waitingTime="0.00" timeLoss="0.04" speed="19.54" speedRelative="1.00" departed="0" arrived="0" entered="3" left="3" laneChangedFrom="0" laneChangedTo="0"/>
        <edge id="6/1to7/1" sampledSeconds="12.41" traveltime="4.92" overlapTraveltime="5.18" density="20.26" overlapDensity="21.52" laneDensity="20.26" occupancy="10.14" waitingTime="0.00" timeLoss="0.04" speed="19.54" speedRelative="1.00" departed="0" arrived="0" entered="3" left="3" laneChangedFrom="0" laneChangedTo="0"/>
        <edge id="7/1to8/1" sampledSeconds="12.41" traveltime="4.92" overlapTraveltime="5.17" density="20.21" overlapDensity="21.52" laneDensity="20.21" occupancy="10.17" waitingTime="0.00" timeLoss="0.04" speed="19.54" speedRelative="1.00" departed="0" arrived="0" entered="3" left="3" laneChangedFrom="0" laneChangedTo="0"/>
        <edge id="8/1to9/1" sampledSeconds="17.92" traveltime="5.07" overlapTraveltime="5.34" density="28.96" overlapDensity="31.07" laneDensity="28.96" occupancy="14.75" waitingTime="0.00" timeLoss="0.60" speed="18.95" speedRelative="0.97" departed="0" arrived="0" entered="3" left="5" laneChangedFrom="0" laneChangedTo="0"/>
        <edge id="9/1to10/1" sampledSeconds="23.21" traveltime="5.16" overlapTraveltime="5.42" density="38.01" overlapDensity="40.24" laneDensity="38.01" occupancy="19.08" waitingTime="0.00" timeLoss="1.13" speed="18.65" speedRelative="0.95" departed="0" arrived="0" entered="4" left="4" laneChangedFrom="0" laneChangedTo="0"/>
    </interval>
    <interval begin="66.00" end="72.00" id="dump_6">
        <edge id="1/1to2/1" sampledSeconds="23.26" traveltime="5.05" overlapTraveltime="5.31" density="38.22" overlapDensity="40.32" laneDensity="38.22" occupancy="19.20" waitingTime="0.00" timeLoss="0.67" speed="19.03" speedRelative="0.97" departed="0" arrived="0" entered="4" left="5" laneChangedFrom="0" laneChangedTo="0"/>
        <edge id="10/1to1/1" sampledSeconds="23.29" traveltime="5.09" overlapTraveltime="5.36" density="38.54" overlapDensity="40.38" laneDensity="38.54" occupancy="19.27" waitingTime="0.00" timeLoss="0.85" speed="18.88" speedRelative="0.96" departed="0" arrived="0" entered="4" left="4" laneChangedFrom="0" laneChangedTo="0"/>
        <edge id="2/1to3/1" sampledSeconds="22.91" traveltime="5.00" overlapTraveltime="5.26" density="37.48" overlapDensity="39.73" laneDensity="37.48" occupancy="18.84" waitingTime="0.00" timeLoss="0.44" speed="19.22" speedRelative="0.98" departed="0" arrived="0" entered="5" left="5" laneChangedFrom="0" laneChangedTo="0"/>
        <edge id="3/1to4/1" sampledSeconds="22.75" traveltime="4.95" overlapTraveltime="5.21" density="37.67" overlapDensity="39.45" laneDensity="37.67" occupancy="18.72" waitingTime="0.00" timeLoss="0.21" speed="19.42" speedRelative="0.99" departed="0" arrived="0" entered="5" left="4" laneChangedFrom="0" laneChangedTo="0"/>
        <edge id="4/1to5/1" sampledSeconds="18.19" traveltime="4.92" overlapTraveltime="5.18" density="30.65" overlapDensity="31.53" laneDensity="30.65" occupancy="15.10" waitingTime="0.00" timeLoss="0.06" speed="19.53" speedRelative="1.00" departed="0" arrived="0" entered="4" left="2" laneChangedFrom="0" laneChangedTo="0"/>
        <edge id="5/1to6/1" sampledSeconds="12.33" traveltime="4.92" overlapTraveltime="5.18" density="20.50" overlapDensity="21.39" laneDensity="20.50" occupancy="10.25" waitingTime="0.00" timeLoss="0.04" speed="19.54" speedRelative="1.00" departed="0" arrived="0" entered="2" left="2" laneChangedFrom="0" laneChangedTo="0"/>
        <edge id="6/1to7/1" sampledSeconds="12.36" traveltime="4.92" overlapTraveltime="5.18" density="20.46" overlapDensity="21.42" laneDensity="20.46" occupancy="10.22" waitingTime="0.00" timeLoss="0.04" speed="19.53" speedRelative="1.00" departed="0" arrived="0" entered="2" left="2" laneChangedFrom="0" laneChangedTo="0"/>