<?xml version="1.0" encoding="UTF-8"?>

<!-- generated on 2026-01-22T16:24:59.884735+01:00 by Eclipse SUMO sumo v1_25_0+1143-5cfd67bbee0
This data file and the accompanying materials
are made available under the terms of the Eclipse Public License v2.0
which accompanies this distribution, and is available at
http://www.eclipse.org/legal/epl-v20.html
This file may also be made available under the following Secondary
Licenses when the conditions for such availability set forth in the Eclipse
Public License 2.0 are satisfied: GNU General Public License, version 2
or later which is available at
https://www.gnu.org/licenses/old-licenses/gpl-2.0-standalone.html
SPDX-License-Identifier: EPL-2.0 OR GPL-2.0-or-later
<sumoConfiguration xmlns:xsi="http://www.w3.org/2001/XMLSchema-instance" xsi:noNamespaceSchemaLocation="http://sumo.dlr.de/xsd/sumoConfiguration.xsd">

    <input>
        <net-file value="three_split.net.xml"/>
        <route-files value="input_routes.rou.xml"/>
    </input>

    <output>
        <write-license value="true"/>
        <tripinfo-output value="tripinfos.xml"/>
    </output>

    <time>
        <end value="1000"/>
    </time>

    <processing>
        <default.speeddev value="0"/>
    </processing>

    <report>
        <xml-validation value="never"/>
        <duration-log.disable value="true"/>
        <no-step-log value="true"/>
    </report>

</sumoConfiguration>
-->

<tripinfos xmlns:xsi="http://www.w3.org/2001/XMLSchema-instance" xsi:noNamespaceSchemaLocation="http://sumo.dlr.de/xsd/tripinfo_file.xsd">
    <containerinfo id="c1" depart="20.00" type="DEFAULT_CONTAINERTYPE" duration="205.00" waitingTime="18.00" timeLoss="3.78" traveltime="187.00">
        <transport waitingTime="18.00" vehicle="truck" depart="38.00" arrival="225.00" arrivalPos="500.00" duration="187.00" routeLength="2962.36" timeLoss="3.78"/>
    </containerinfo>
    <containerinfo id="c2" depart="20.00" type="DEFAULT_CONTAINERTYPE" duration="205.00" waitingTime="18.00" timeLoss="3.78" traveltime="187.00">
        <transport waitingTime="18.00" vehicle="truck" depart="38.00" arrival="225.00" arrivalPos="500.00" duration="187.00" routeLength="2962.36" timeLoss="3.78"/>
    </containerinfo>
    <tripinfo id="truck" depart="0.00" departLane="beg_0" departPos="0.00" departSpeed="0.00" departDelay="0.00" arrival="225.00" arrivalLane="end_0" arrivalPos="500.00" arrivalSpeed="27.80" duration="225.00" routeLength="3012.36" waitingTime="0.00" waitingCount="0" stopTime="30.00" timeLoss="3.78" rerouteNo="0" devices="tripinfo_truck container_truck" vType="DEFAULT_VEHTYPE" speedFactor="1.00" vaporized=""/>
</tripinfos>
