<?xml version="1.0" encoding="UTF-8"?>

<!-- generated on Tue Apr  3 14:51:12 2018 by SUMO Version v0_32_0+0987-d026ef6
This data file and the accompanying materials
are made available under the terms of the Eclipse Public License v2.0
which accompanies this distribution, and is available at
http://www.eclipse.org/legal/epl-v20.html
SPDX-License-Identifier: EPL-2.0
<configuration xmlns:xsi="http://www.w3.org/2001/XMLSchema-instance" xsi:noNamespaceSchemaLocation="http://sumo.dlr.de/xsd/sumoConfiguration.xsd">

    <input>
        <net-file value="net.net.xml"/>
        <route-files value="input_routes.rou.xml"/>
    </input>

    <output>
        <write-license value="true"/>
        <fcd-output value="fcd.xml"/>
    </output>

    <report>
        <xml-validation value="never"/>
        <duration-log.disable value="true"/>
        <no-step-log value="true"/>
    </report>

</configuration>
-->

<fcd-export xmlns:xsi="http://www.w3.org/2001/XMLSchema-instance" xsi:noNamespaceSchemaLocation="http://sumo.dlr.de/xsd/fcd_file.xsd">
    <timestep time="0.00">
        <vehicle id="RE1" x="-4435.45" y="-1472.80" angle="87.73" type="REDosto7" speed="13.89" pos="207.10" lane="beg_0" slope="0.00"/>
    </timestep>
    <timestep time="1.00">
        <vehicle id="RE1" x="-4421.12" y="-1472.23" angle="87.73" type="REDosto7" speed="13.89" pos="220.99" lane="beg_0" slope="0.00"/>
    </timestep>
    <timestep time="2.00">
        <vehicle id="RE1" x="-4406.78" y="-1471.67" angle="87.73" type="REDosto7" speed="13.89" pos="234.88" lane="beg_0" slope="0.00"/>
    </timestep>
    <timestep time="3.00">
        <vehicle id="RE1" x="-4392.45" y="-1471.10" angle="87.73" type="REDosto7" speed="13.89" pos="248.77" lane="beg_0" slope="0.00"/>
    </timestep>
    <timestep time="4.00">
        <vehicle id="RE1" x="-4378.12" y="-1470.53" angle="87.73" type="REDosto7" speed="13.89" pos="262.66" lane="beg_0" slope="0.00"/>
    </timestep>
    <timestep time="5.00">
        <vehicle id="RE1" x="-4363.78" y="-1469.96" angle="87.73" type="REDosto7" speed="13.89" pos="276.55" lane="beg_0" slope="0.00"/>
    </timestep>
    <timestep time="6.00">
        <vehicle id="RE1" x="-4349.45" y="-1469.39" angle="87.73" type="REDosto7" speed="13.89" pos="290.44" lane="beg_0" slope="0.00"/>
    </timestep>
    <timestep time="7.00">
        <vehicle id="RE1" x="-4335.12" y="-1468.82" angle="87.73" type="REDosto7" speed="13.89" pos="304.33" lane="beg_0" slope="0.00"/>
    </timestep>
    <timestep time="8.00">
        <vehicle id="RE1" x="-4320.78" y="-1468.25" angle="87.73" type="REDosto7" speed="13.89" pos="318.22" lane="beg_0" slope="0.00"/>
    </timestep>
    <timestep time="9.00">
        <vehicle id="RE1" x="-4306.45" y="-1467.68" angle="87.73" type="REDosto7" speed="13.89" pos="332.11" lane="beg_0" slope="0.00"/>
    </timestep>
    <timestep time="10.00">
        <vehicle id="RE1" x="-4292.11" y="-1467.11" angle="87.73" type="REDosto7" speed="13.89" pos="346.00" lane="beg_0" slope="0.00"/>
    </timestep>
    <timestep time="11.00">
        <vehicle id="RE1" x="-4277.78" y="-1466.54" angle="87.73" type="REDosto7" speed="13.89" pos="359.89" lane="beg_0" slope="0.00"/>
    </timestep>
    <timestep time="12.00">
        <vehicle id="RE1" x="-4263.45" y="-1465.97" angle="87.73" type="REDosto7" speed="13.89" pos="373.78" lane="beg_0" slope="0.00"/>
    </timestep>
    <timestep time="13.00">
        <vehicle id="RE1" x="-4249.11" y="-1465.41" angle="87.73" type="REDosto7" speed="13.89" pos="387.67" lane="beg_0" slope="0.00"/>
    </timestep>
    <timestep time="14.00">
        <vehicle id="RE1" x="-4234.78" y="-1464.84" angle="87.73" type="REDosto7" speed="13.89" pos="401.56" lane="beg_0" slope="0.00"/>
    </timestep>
    <timestep time="15.00">
        <vehicle id="RE1" x="-4220.44" y="-1464.27" angle="87.73" type="REDosto7" speed="13.89" pos="415.45" lane="beg_0" slope="0.00"/>
    </timestep>
    <timestep time="16.00">
        <vehicle id="RE1" x="-4206.11" y="-1463.70" angle="87.73" type="REDosto7" speed="13.89" pos="429.34" lane="beg_0" slope="0.00"/>
    </timestep>
    <timestep time="17.00">
        <vehicle id="RE1" x="-4191.78" y="-1463.13" angle="87.73" type="REDosto7" speed="13.89" pos="443.23" lane="beg_0" slope="0.00"/>
    </timestep>
    <timestep time="18.00">
        <vehicle id="RE1" x="-4177.44" y="-1462.56" angle="87.73" type="REDosto7" speed="13.89" pos="457.12" lane="beg_0" slope="0.00"/>
    </timestep>
    <timestep time="19.00">
        <vehicle id="RE1" x="-4163.11" y="-1461.99" angle="87.73" type="REDosto7" speed="13.89" pos="471.01" lane="beg_0" slope="0.00"/>
    </timestep>
    <timestep time="20.00">
        <vehicle id="RE1" x="-4148.78" y="-1461.42" angle="87.73" type="REDosto7" speed="13.89" pos="484.90" lane="beg_0" slope="0.00"/>
    </timestep>
    <timestep time="21.00">
        <vehicle id="RE1" x="-4134.44" y="-1460.85" angle="87.73" type="REDosto7" speed="13.89" pos="498.79" lane="beg_0" slope="0.00"/>
    </timestep>
    <timestep time="22.00">
        <vehicle id="RE1" x="-4120.11" y="-1460.28" angle="87.73" type="REDosto7" speed="13.89" pos="512.68" lane="beg_0" slope="0.00"/>
    </timestep>
    <timestep time="23.00">
        <vehicle id="RE1" x="-4105.77" y="-1459.71" angle="87.73" type="REDosto7" speed="13.89" pos="526.57" lane="beg_0" slope="0.00"/>
    </timestep>
    <timestep time="24.00">
        <vehicle id="RE1" x="-4091.44" y="-1459.14" angle="87.73" type="REDosto7" speed="13.89" pos="540.46" lane="beg_0" slope="0.00"/>
    </timestep>
    <timestep time="25.00">
        <vehicle id="RE1" x="-4077.11" y="-1458.58" angle="87.73" type="REDosto7" speed="13.89" pos="554.35" lane="beg_0" slope="0.00"/>
    </timestep>
    <timestep time="26.00">
        <vehicle id="RE1" x="-4062.77" y="-1458.01" angle="87.73" type="REDosto7" speed="13.89" pos="568.24" lane="beg_0" slope="0.00"/>
    </timestep>
    <timestep time="27.00">
        <vehicle id="RE1" x="-4048.44" y="-1457.44" angle="87.73" type="REDosto7" speed="13.89" pos="582.13" lane="beg_0" slope="0.00"/>
    </timestep>
    <timestep time="28.00">
        <vehicle id="RE1" x="-4034.10" y="-1456.87" angle="87.73" type="REDosto7" speed="13.89" pos="596.02" lane="beg_0" slope="0.00"/>
    </timestep>
    <timestep time="29.00">
        <vehicle id="RE1" x="-4019.77" y="-1456.30" angle="87.73" type="REDosto7" speed="13.89" pos="609.91" lane="beg_0" slope="0.00"/>
    </timestep>
    <timestep time="30.00">
        <vehicle id="RE1" x="-4005.44" y="-1455.73" angle="87.73" type="REDosto7" speed="13.89" pos="623.80" lane="beg_0" slope="0.00"/>
    </timestep>
    <timestep time="31.00">
        <vehicle id="RE1" x="-3991.10" y="-1455.16" angle="87.73" type="REDosto7" speed="13.89" pos="637.69" lane="beg_0" slope="0.00"/>
    </timestep>
    <timestep time="32.00">
        <vehicle id="RE1" x="-3976.77" y="-1454.59" angle="87.73" type="REDosto7" speed="13.89" pos="651.58" lane="beg_0" slope="0.00"/>
    </timestep>
    <timestep time="33.00">
        <vehicle id="RE1" x="-3962.43" y="-1454.02" angle="87.73" type="REDosto7" speed="13.89" pos="665.47" lane="beg_0" slope="0.00"/>
    </timestep>
    <timestep time="34.00">
        <vehicle id="RE1" x="-3948.10" y="-1453.45" angle="87.73" type="REDosto7" speed="13.89" pos="679.36" lane="beg_0" slope="0.00"/>
    </timestep>
    <timestep time="35.00">
        <vehicle id="RE1" x="-3933.77" y="-1452.88" angle="87.73" type="REDosto7" speed="13.89" pos="693.25" lane="beg_0" slope="0.00"/>
    </timestep>
    <timestep time="36.00">
        <vehicle id="RE1" x="-3919.43" y="-1452.31" angle="87.73" type="REDosto7" speed="13.89" pos="707.14" lane="beg_0" slope="0.00"/>
    </timestep>
    <timestep time="37.00">
        <vehicle id="RE1" x="-3905.10" y="-1451.75" angle="87.73" type="REDosto7" speed="13.89" pos="721.03" lane="beg_0" slope="0.00"/>
    </timestep>
    <timestep time="38.00">
        <vehicle id="RE1" x="-3890.77" y="-1451.18" angle="87.73" type="REDosto7" speed="13.89" pos="734.92" lane="beg_0" slope="0.00"/>
    </timestep>
    <timestep time="39.00">
        <vehicle id="RE1" x="-3876.43" y="-1450.61" angle="87.73" type="REDosto7" speed="13.89" pos="748.81" lane="beg_0" slope="0.00"/>
    </timestep>
    <timestep time="40.00">
        <vehicle id="RE1" x="-3862.10" y="-1450.04" angle="87.73" type="REDosto7" speed="13.89" pos="762.70" lane="beg_0" slope="0.00"/>
    </timestep>
    <timestep time="41.00">
        <vehicle id="RE1" x="-3847.76" y="-1449.47" angle="87.73" type="REDosto7" speed="13.89" pos="776.59" lane="beg_0" slope="0.00"/>
    </timestep>
    <timestep time="42.00">
        <vehicle id="RE1" x="-3833.43" y="-1448.90" angle="87.73" type="REDosto7" speed="13.89" pos="790.48" lane="beg_0" slope="0.00"/>
    </timestep>
    <timestep time="43.00">
        <vehicle id="RE1" x="-3819.10" y="-1448.33" angle="87.73" type="REDosto7" speed="13.89" pos="804.37" lane="beg_0" slope="0.00"/>
    </timestep>
    <timestep time="44.00">
        <vehicle id="RE1" x="-3804.76" y="-1447.76" angle="87.73" type="REDosto7" speed="13.89" pos="818.26" lane="beg_0" slope="0.00"/>
    </timestep>
    <timestep time="45.00">
        <vehicle id="RE1" x="-3790.43" y="-1447.19" angle="87.73" type="REDosto7" speed="13.89" pos="832.15" lane="beg_0" slope="0.00"/>
    </timestep>
    <timestep time="46.00">
        <vehicle id="RE1" x="-3776.09" y="-1446.62" angle="87.73" type="REDosto7" speed="13.89" pos="846.04" lane="beg_0" slope="0.00"/>
    </timestep>
    <timestep time="47.00">
        <vehicle id="RE1" x="-3761.76" y="-1446.05" angle="87.73" type="REDosto7" speed="13.89" pos="859.93" lane="beg_0" slope="0.00"/>
    </timestep>
    <timestep time="48.00">
        <vehicle id="RE1" x="-3747.43" y="-1445.49" angle="87.73" type="REDosto7" speed="13.89" pos="873.82" lane="beg_0" slope="0.00"/>
    </timestep>
    <timestep time="49.00">
        <vehicle id="RE1" x="-3733.09" y="-1444.92" angle="87.73" type="REDosto7" speed="13.89" pos="887.71" lane="beg_0" slope="0.00"/>
    </timestep>
    <timestep time="50.00">
        <vehicle id="RE1" x="-3718.76" y="-1444.35" angle="87.73" type="REDosto7" speed="13.89" pos="901.60" lane="beg_0" slope="0.00"/>
    </timestep>
    <timestep time="51.00">
        <vehicle id="RE1" x="-3704.43" y="-1443.78" angle="87.73" type="REDosto7" speed="13.89" pos="915.49" lane="beg_0" slope="0.00"/>
    </timestep>
    <timestep time="52.00">
        <vehicle id="RE1" x="-3690.09" y="-1443.21" angle="87.73" type="REDosto7" speed="13.89" pos="929.38" lane="beg_0" slope="0.00"/>
    </timestep>
    <timestep time="53.00">
        <vehicle id="RE1" x="-3675.76" y="-1442.64" angle="87.73" type="REDosto7" speed="13.89" pos="943.27" lane="beg_0" slope="0.00"/>
    </timestep>
    <timestep time="54.00">
        <vehicle id="RE1" x="-3661.42" y="-1442.07" angle="87.73" type="REDosto7" speed="13.89" pos="957.16" lane="beg_0" slope="0.00"/>
    </timestep>
    <timestep time="55.00">
        <vehicle id="RE1" x="-3647.09" y="-1441.50" angle="87.73" type="REDosto7" speed="13.89" pos="971.05" lane="beg_0" slope="0.00"/>
    </timestep>
    <timestep time="56.00">
        <vehicle id="RE1" x="-3632.76" y="-1440.93" angle="87.73" type="REDosto7" speed="13.89" pos="984.94" lane="beg_0" slope="0.00"/>
    </timestep>
    <timestep time="57.00">
        <vehicle id="RE1" x="-3618.42" y="-1440.36" angle="87.73" type="REDosto7" speed="13.89" pos="998.83" lane="beg_0" slope="0.00"/>
    </timestep>
    <timestep time="58.00">
        <vehicle id="RE1" x="-3604.09" y="-1439.79" angle="87.73" type="REDosto7" speed="13.89" pos="1012.72" lane="beg_0" slope="0.00"/>
    </timestep>
    <timestep time="59.00">
        <vehicle id="RE1" x="-3589.75" y="-1439.22" angle="87.73" type="REDosto7" speed="13.89" pos="1026.61" lane="beg_0" slope="0.00"/>
    </timestep>
    <timestep time="60.00">
        <vehicle id="RE1" x="-3575.42" y="-1438.66" angle="87.73" type="REDosto7" speed="13.89" pos="1040.50" lane="beg_0" slope="0.00"/>
    </timestep>
    <timestep time="61.00">
        <vehicle id="RE1" x="-3561.09" y="-1438.09" angle="87.73" type="REDosto7" speed="13.89" pos="1054.39" lane="beg_0" slope="0.00"/>
    </timestep>
    <timestep time="62.00">
        <vehicle id="RE1" x="-3546.75" y="-1437.52" angle="87.73" type="REDosto7" speed="13.89" pos="1068.28" lane="beg_0" slope="0.00"/>
    </timestep>
    <timestep time="63.00">
        <vehicle id="RE1" x="-3532.42" y="-1436.95" angle="87.73" type="REDosto7" speed="13.89" pos="1082.17" lane="beg_0" slope="0.00"/>
    </timestep>
    <timestep time="64.00">
        <vehicle id="RE1" x="-3518.09" y="-1436.38" angle="87.73" type="REDosto7" speed="13.89" pos="1096.06" lane="beg_0" slope="0.00"/>
    </timestep>
    <timestep time="65.00">
        <vehicle id="RE1" x="-3503.75" y="-1435.81" angle="87.73" type="REDosto7" speed="13.89" pos="1109.95" lane="beg_0" slope="0.00"/>
    </timestep>
    <timestep time="66.00">
        <vehicle id="RE1" x="-3489.42" y="-1435.24" angle="87.73" type="REDosto7" speed="13.89" pos="1123.84" lane="beg_0" slope="0.00"/>
    </timestep>
    <timestep time="67.00">
        <vehicle id="RE1" x="-3475.08" y="-1434.67" angle="87.73" type="REDosto7" speed="13.89" pos="1137.73" lane="beg_0" slope="0.00"/>
    </timestep>
    <timestep time="68.00">
        <vehicle id="RE1" x="-3460.75" y="-1434.10" angle="87.73" type="REDosto7" speed="13.89" pos="1151.62" lane="beg_0" slope="0.00"/>
    </timestep>
    <timestep time="69.00">
        <vehicle id="RE1" x="-3446.42" y="-1433.53" angle="87.73" type="REDosto7" speed="13.89" pos="1165.51" lane="beg_0" slope="0.00"/>
    </timestep>
    <timestep time="70.00">
        <vehicle id="RE1" x="-3432.08" y="-1432.96" angle="87.73" type="REDosto7" speed="13.89" pos="1179.40" lane="beg_0" slope="0.00"/>
    </timestep>
    <timestep time="71.00">
        <vehicle id="RE1" x="-3417.75" y="-1432.39" angle="87.73" type="REDosto7" speed="13.89" pos="1193.29" lane="beg_0" slope="0.00"/>
    </timestep>
    <timestep time="72.00">
        <vehicle id="RE1" x="-3403.41" y="-1431.83" angle="87.73" type="REDosto7" speed="13.89" pos="1207.18" lane="beg_0" slope="0.00"/>
    </timestep>
    <timestep time="73.00">
        <vehicle id="RE1" x="-3389.08" y="-1431.26" angle="87.73" type="REDosto7" speed="13.89" pos="1221.07" lane="beg_0" slope="0.00"/>
    </timestep>
    <timestep time="74.00">
        <vehicle id="RE1" x="-3374.75" y="-1430.69" angle="87.73" type="REDosto7" speed="13.89" pos="1234.96" lane="beg_0" slope="0.00"/>
    </timestep>
    <timestep time="75.00">
        <vehicle id="RE1" x="-3360.41" y="-1430.12" angle="87.73" type="REDosto7" speed="13.89" pos="1248.85" lane="beg_0" slope="0.00"/>
    </timestep>
    <timestep time="76.00">
        <vehicle id="RE1" x="-3346.08" y="-1429.55" angle="87.73" type="REDosto7" speed="13.89" pos="1262.74" lane="beg_0" slope="0.00"/>
    </timestep>
    <timestep time="77.00">
        <vehicle id="RE1" x="-3331.75" y="-1428.98" angle="87.73" type="REDosto7" speed="13.89" pos="1276.63" lane="beg_0" slope="0.00"/>
    </timestep>
    <timestep time="78.00">
        <vehicle id="RE1" x="-3317.41" y="-1428.41" angle="87.73" type="REDosto7" speed="13.89" pos="1290.52" lane="beg_0" slope="0.00"/>
    </timestep>
    <timestep time="79.00">
        <vehicle id="RE1" x="-3303.08" y="-1427.84" angle="87.73" type="REDosto7" speed="13.89" pos="1304.41" lane="beg_0" slope="0.00"/>
    </timestep>
    <timestep time="80.00">
        <vehicle id="RE1" x="-3288.74" y="-1427.27" angle="87.73" type="REDosto7" speed="13.89" pos="1318.30" lane="beg_0" slope="0.00"/>
    </timestep>
    <timestep time="81.00">
        <vehicle id="RE1" x="-3274.41" y="-1426.70" angle="87.73" type="REDosto7" speed="13.89" pos="1332.19" lane="beg_0" slope="0.00"/>
    </timestep>
    <timestep time="82.00">
        <vehicle id="RE1" x="-3260.08" y="-1426.13" angle="87.73" type="REDosto7" speed="13.89" pos="1346.08" lane="beg_0" slope="0.00"/>
    </timestep>
    <timestep time="83.00">
        <vehicle id="RE1" x="-3245.74" y="-1425.57" angle="87.73" type="REDosto7" speed="13.89" pos="1359.97" lane="beg_0" slope="0.00"/>
    </timestep>
    <timestep time="84.00">
        <vehicle id="RE1" x="-3231.41" y="-1425.00" angle="87.73" type="REDosto7" speed="13.89" pos="1373.86" lane="beg_0" slope="0.00"/>
    </timestep>
    <timestep time="85.00">
        <vehicle id="RE1" x="-3217.07" y="-1424.43" angle="87.73" type="REDosto7" speed="13.89" pos="1387.75" lane="beg_0" slope="0.00"/>
    </timestep>
    <timestep time="86.00">
        <vehicle id="RE1" x="-3202.74" y="-1423.86" angle="87.73" type="REDosto7" speed="13.89" pos="1401.64" lane="beg_0" slope="0.00"/>
    </timestep>
    <timestep time="87.00">
        <vehicle id="RE1" x="-3188.41" y="-1423.29" angle="87.73" type="REDosto7" speed="13.89" pos="1415.53" lane="beg_0" slope="0.00"/>
    </timestep>
    <timestep time="88.00">
        <vehicle id="RE1" x="-3174.07" y="-1422.72" angle="87.73" type="REDosto7" speed="13.89" pos="1429.42" lane="beg_0" slope="0.00"/>
    </timestep>
    <timestep time="89.00">
        <vehicle id="RE1" x="-3159.74" y="-1422.15" angle="87.73" type="REDosto7" speed="13.89" pos="1443.31" lane="beg_0" slope="0.00"/>
    </timestep>
    <timestep time="90.00">
        <vehicle id="RE1" x="-3145.41" y="-1421.58" angle="87.73" type="REDosto7" speed="13.89" pos="1457.20" lane="beg_0" slope="0.00"/>
    </timestep>
    <timestep time="91.00">
        <vehicle id="RE1" x="-3131.07" y="-1421.01" angle="87.73" type="REDosto7" speed="13.89" pos="1471.09" lane="beg_0" slope="0.00"/>
    </timestep>
    <timestep time="92.00">
        <vehicle id="RE1" x="-3116.74" y="-1420.44" angle="87.73" type="REDosto7" speed="13.89" pos="1484.98" lane="beg_0" slope="0.00"/>
    </timestep>
    <timestep time="93.00">
        <vehicle id="RE1" x="-3102.40" y="-1419.87" angle="87.73" type="REDosto7" speed="13.89" pos="1498.87" lane="beg_0" slope="0.00"/>
    </timestep>
    <timestep time="94.00">
        <vehicle id="RE1" x="-3088.07" y="-1419.30" angle="87.73" type="REDosto7" speed="13.89" pos="1512.76" lane="beg_0" slope="0.00"/>
    </timestep>
    <timestep time="95.00">
        <vehicle id="RE1" x="-3073.74" y="-1418.74" angle="87.73" type="REDosto7" speed="13.89" pos="1526.65" lane="beg_0" slope="0.00"/>
    </timestep>
    <timestep time="96.00">
        <vehicle id="RE1" x="-3059.40" y="-1418.17" angle="87.73" type="REDosto7" speed="13.89" pos="1540.54" lane="beg_0" slope="0.00"/>
    </timestep>
    <timestep time="97.00">
        <vehicle id="RE1" x="-3045.07" y="-1417.60" angle="87.73" type="REDosto7" speed="13.89" pos="1554.43" lane="beg_0" slope="0.00"/>
    </timestep>
    <timestep time="98.00">
        <vehicle id="RE1" x="-3030.73" y="-1417.03" angle="87.73" type="REDosto7" speed="13.89" pos="1568.32" lane="beg_0" slope="0.00"/>
    </timestep>
    <timestep time="99.00">
        <vehicle id="RE1" x="-3016.40" y="-1416.46" angle="87.73" type="REDosto7" speed="13.89" pos="1582.21" lane="beg_0" slope="0.00"/>
    </timestep>
    <timestep time="100.00">
        <vehicle id="RE1" x="-3002.07" y="-1415.89" angle="87.73" type="REDosto7" speed="13.89" pos="1596.10" lane="beg_0" slope="0.00"/>
    </timestep>
    <timestep time="101.00">
        <vehicle id="RE1" x="-2987.73" y="-1415.32" angle="87.73" type="REDosto7" speed="13.89" pos="1609.99" lane="beg_0" slope="0.00"/>
    </timestep>
    <timestep time="102.00">
        <vehicle id="RE1" x="-2973.40" y="-1414.75" angle="87.73" type="REDosto7" speed="13.89" pos="1623.88" lane="beg_0" slope="0.00"/>
    </timestep>
    <timestep time="103.00">
        <vehicle id="RE1" x="-2959.07" y="-1414.18" angle="87.73" type="REDosto7" speed="13.89" pos="1637.77" lane="beg_0" slope="0.00"/>
    </timestep>
    <timestep time="104.00">
        <vehicle id="RE1" x="-2944.73" y="-1413.61" angle="87.73" type="REDosto7" speed="13.89" pos="1651.66" lane="beg_0" slope="0.00"/>
    </timestep>
    <timestep time="105.00">
        <vehicle id="RE1" x="-2930.40" y="-1413.04" angle="87.73" type="REDosto7" speed="13.89" pos="1665.55" lane="beg_0" slope="0.00"/>
    </timestep>
    <timestep time="106.00">
        <vehicle id="RE1" x="-2916.06" y="-1412.47" angle="87.73" type="REDosto7" speed="13.89" pos="1679.44" lane="beg_0" slope="0.00"/>
    </timestep>
    <timestep time="107.00">
        <vehicle id="RE1" x="-2901.73" y="-1411.91" angle="87.73" type="REDosto7" speed="13.89" pos="1693.33" lane="beg_0" slope="0.00"/>
    </timestep>
    <timestep time="108.00">
        <vehicle id="RE1" x="-2887.40" y="-1411.34" angle="87.73" type="REDosto7" speed="13.89" pos="1707.22" lane="beg_0" slope="0.00"/>
    </timestep>
    <timestep time="109.00">
        <vehicle id="RE1" x="-2873.06" y="-1410.77" angle="87.73" type="REDosto7" speed="13.89" pos="1721.11" lane="beg_0" slope="0.00"/>
    </timestep>
    <timestep time="110.00">
        <vehicle id="RE1" x="-2858.73" y="-1410.20" angle="87.73" type="REDosto7" speed="13.89" pos="1735.00" lane="beg_0" slope="0.00"/>
    </timestep>
    <timestep time="111.00">
        <vehicle id="RE1" x="-2844.39" y="-1409.63" angle="87.73" type="REDosto7" speed="13.89" pos="1748.89" lane="beg_0" slope="0.00"/>
    </timestep>
    <timestep time="112.00">
        <vehicle id="RE1" x="-2830.06" y="-1409.06" angle="87.73" type="REDosto7" speed="13.89" pos="1762.78" lane="beg_0" slope="0.00"/>
    </timestep>
    <timestep time="113.00">
        <vehicle id="RE1" x="-2815.73" y="-1408.49" angle="87.73" type="REDosto7" speed="13.89" pos="1776.67" lane="beg_0" slope="0.00"/>
    </timestep>
    <timestep time="114.00">
        <vehicle id="RE1" x="-2801.39" y="-1407.92" angle="87.73" type="REDosto7" speed="13.89" pos="1790.56" lane="beg_0" slope="0.00"/>
    </timestep>
    <timestep time="115.00">
        <vehicle id="RE1" x="-2787.06" y="-1407.35" angle="87.73" type="REDosto7" speed="13.89" pos="1804.45" lane="beg_0" slope="0.00"/>
    </timestep>
    <timestep time="116.00">
        <vehicle id="RE1" x="-2772.72" y="-1406.78" angle="87.73" type="REDosto7" speed="13.89" pos="1818.34" lane="beg_0" slope="0.00"/>
    </timestep>
    <timestep time="117.00">
        <vehicle id="RE1" x="-2758.39" y="-1406.21" angle="87.73" type="REDosto7" speed="13.89" pos="1832.23" lane="beg_0" slope="0.00"/>
    </timestep>
    <timestep time="118.00">
        <vehicle id="RE1" x="-2744.06" y="-1405.65" angle="87.73" type="REDosto7" speed="13.89" pos="1846.12" lane="beg_0" slope="0.00"/>
    </timestep>
    <timestep time="119.00">
        <vehicle id="RE1" x="-2729.72" y="-1405.08" angle="87.73" type="REDosto7" speed="13.89" pos="1860.01" lane="beg_0" slope="0.00"/>
    </timestep>
    <timestep time="120.00">
        <vehicle id="RE1" x="-2715.39" y="-1404.51" angle="87.73" type="REDosto7" speed="13.89" pos="1873.90" lane="beg_0" slope="0.00"/>
    </timestep>
    <timestep time="121.00">
        <vehicle id="RE1" x="-2701.06" y="-1403.94" angle="87.73" type="REDosto7" speed="13.89" pos="1887.79" lane="beg_0" slope="0.00"/>
    </timestep>
    <timestep time="122.00">
        <vehicle id="RE1" x="-2686.72" y="-1403.37" angle="87.73" type="REDosto7" speed="13.89" pos="1901.68" lane="beg_0" slope="0.00"/>
    </timestep>
    <timestep time="123.00">
        <vehicle id="RE1" x="-2672.39" y="-1402.80" angle="87.73" type="REDosto7" speed="13.89" pos="1915.57" lane="beg_0" slope="0.00"/>
    </timestep>
    <timestep time="124.00">
        <vehicle id="RE1" x="-2658.05" y="-1402.23" angle="87.73" type="REDosto7" speed="13.89" pos="1929.46" lane="beg_0" slope="0.00"/>
    </timestep>
    <timestep time="125.00">
        <vehicle id="RE1" x="-2643.72" y="-1401.66" angle="87.73" type="REDosto7" speed="13.89" pos="1943.35" lane="beg_0" slope="0.00"/>
    </timestep>
    <timestep time="126.00">
        <vehicle id="RE1" x="-2629.39" y="-1401.09" angle="87.73" type="REDosto7" speed="13.89" pos="1957.24" lane="beg_0" slope="0.00"/>
    </timestep>
    <timestep time="127.00">
        <vehicle id="RE1" x="-2615.05" y="-1400.52" angle="87.73" type="REDosto7" speed="13.89" pos="1971.13" lane="beg_0" slope="0.00"/>
    </timestep>
    <timestep time="128.00">
        <vehicle id="RE1" x="-2600.72" y="-1399.95" angle="87.73" type="REDosto7" speed="13.89" pos="1985.02" lane="beg_0" slope="0.00"/>
    </timestep>
    <timestep time="129.00">
        <vehicle id="RE1" x="-2586.38" y="-1399.38" angle="87.73" type="REDosto7" speed="13.89" pos="1998.91" lane="beg_0" slope="0.00"/>
    </timestep>
    <timestep time="130.00">
        <vehicle id="RE1" x="-2578.33" y="-1399.46" angle="87.83" type="REDosto7" speed="13.89" pos="12.70" lane="middle_0" slope="0.00"/>
    </timestep>
    <timestep time="131.00">
        <vehicle id="RE1" x="-2570.65" y="-1399.59" angle="87.96" type="REDosto7" speed="13.89" pos="26.59" lane="middle_0" slope="0.00"/>
    </timestep>
    <timestep time="132.00">
        <vehicle id="RE1" x="-2562.97" y="-1399.72" angle="88.10" type="REDosto7" speed="13.89" pos="40.48" lane="middle_0" slope="0.00"/>
    </timestep>
    <timestep time="133.00">
        <vehicle id="RE1" x="-2555.28" y="-1399.85" angle="88.24" type="REDosto7" speed="13.89" pos="54.37" lane="middle_0" slope="0.00"/>
    </timestep>
    <timestep time="134.00">
        <vehicle id="RE1" x="-2547.60" y="-1399.97" angle="88.40" type="REDosto7" speed="13.89" pos="68.26" lane="middle_0" slope="0.00"/>
    </timestep>
    <timestep time="135.00">
        <vehicle id="RE1" x="-2539.92" y="-1400.10" angle="88.57" type="REDosto7" speed="13.89" pos="82.15" lane="middle_0" slope="0.00"/>
    </timestep>
    <timestep time="136.00">
        <vehicle id="RE1" x="-2532.23" y="-1400.23" angle="88.75" type="REDosto7" speed="13.89" pos="96.04" lane="middle_0" slope="0.00"/>
    </timestep>
    <timestep time="137.00">
        <vehicle id="RE1" x="-2524.55" y="-1400.36" angle="88.95" type="REDosto7" speed="13.89" pos="109.93" lane="middle_0" slope="0.00"/>
    </timestep>
    <timestep time="138.00">
        <vehicle id="RE1" x="-2516.87" y="-1400.49" angle="89.16" type="REDosto7" speed="13.89" pos="123.82" lane="middle_0" slope="0.00"/>
    </timestep>
    <timestep time="139.00">
        <vehicle id="RE1" x="-2509.18" y="-1400.62" angle="89.40" type="REDosto7" speed="13.89" pos="137.71" lane="middle_0" slope="0.00"/>
    </timestep>
    <timestep time="140.00">
        <vehicle id="RE1" x="-2501.50" y="-1400.75" angle="89.65" type="REDosto7" speed="13.89" pos="151.60" lane="middle_0" slope="0.00"/>
    </timestep>
    <timestep time="141.00">
        <vehicle id="RE1" x="-2493.82" y="-1400.88" angle="89.93" type="REDosto7" speed="13.89" pos="165.49" lane="middle_0" slope="0.00"/>
    </timestep>
    <timestep time="142.00">
        <vehicle id="RE1" x="-2486.13" y="-1401.01" angle="90.24" type="REDosto7" speed="13.89" pos="179.38" lane="middle_0" slope="0.00"/>
    </timestep>
    <timestep time="143.00">
        <vehicle id="RE1" x="-2478.45" y="-1401.14" angle="90.59" type="REDosto7" speed="13.89" pos="193.27" lane="middle_0" slope="0.00"/>
    </timestep>
    <timestep time="144.00">
        <vehicle id="RE1" x="-2470.77" y="-1401.27" angle="90.96" type="REDosto7" speed="13.89" pos="207.16" lane="middle_0" slope="0.00"/>
    </timestep>
    <timestep time="145.00">
        <vehicle id="RE1" x="-2462.74" y="-1401.40" angle="90.96" type="REDosto7" speed="14.50" pos="221.66" lane="middle_0" slope="0.00"/>
    </timestep>
    <timestep time="146.00">
        <vehicle id="RE1" x="-2454.38" y="-1401.54" angle="90.96" type="REDosto7" speed="15.12" pos="236.78" lane="middle_0" slope="0.00"/>
    </timestep>
    <timestep time="147.00">
        <vehicle id="RE1" x="-2445.68" y="-1401.69" angle="90.96" type="REDosto7" speed="15.73" pos="252.51" lane="middle_0" slope="0.00"/>
    </timestep>
    <timestep time="148.00">
        <vehicle id="RE1" x="-2436.64" y="-1401.84" angle="90.96" type="REDosto7" speed="16.34" pos="268.85" lane="middle_0" slope="0.00"/>
    </timestep>
    <timestep time="149.00">
        <vehicle id="RE1" x="-2427.26" y="-1402.00" angle="90.96" type="REDosto7" speed="16.95" pos="285.80" lane="middle_0" slope="0.00"/>
    </timestep>
    <timestep time="150.00">
        <vehicle id="RE1" x="-2417.55" y="-1402.16" angle="90.96" type="REDosto7" speed="17.56" pos="303.36" lane="middle_0" slope="0.00"/>
    </timestep>
    <timestep time="151.00">
        <vehicle id="RE1" x="-2407.50" y="-1402.33" angle="90.96" type="REDosto7" speed="18.16" pos="321.53" lane="middle_0" slope="0.00"/>
    </timestep>
    <timestep time="152.00">
        <vehicle id="RE1" x="-2397.13" y="-1402.51" angle="90.96" type="REDosto7" speed="18.76" pos="340.29" lane="middle_0" slope="0.00"/>
    </timestep>
    <timestep time="153.00">
        <vehicle id="RE1" x="-2386.42" y="-1402.69" angle="90.96" type="REDosto7" speed="19.35" pos="359.64" lane="middle_0" slope="0.00"/>
    </timestep>
    <timestep time="154.00">
        <vehicle id="RE1" x="-2375.40" y="-1402.87" angle="90.96" type="REDosto7" speed="19.93" pos="379.57" lane="middle_0" slope="0.00"/>
    </timestep>
    <timestep time="155.00">
        <vehicle id="RE1" x="-2364.06" y="-1403.06" angle="90.96" type="REDosto7" speed="20.50" pos="400.07" lane="middle_0" slope="0.00"/>
    </timestep>
    <timestep time="156.00">
        <vehicle id="RE1" x="-2352.41" y="-1403.26" angle="90.96" type="REDosto7" speed="21.06" pos="421.13" lane="middle_0" slope="0.00"/>
    </timestep>
    <timestep time="157.00">
        <vehicle id="RE1" x="-2340.46" y="-1403.46" angle="90.96" type="REDosto7" speed="21.59" pos="442.72" lane="middle_0" slope="0.00"/>
    </timestep>
    <timestep time="158.00">