<?xml version="1.0" encoding="UTF-8"?>

<!-- generated on 2025-07-02 13:37:28 by Eclipse SUMO sumo Version v1_23_1+0813-425cec00f88
This data file and the accompanying materials
are made available under the terms of the Eclipse Public License v2.0
which accompanies this distribution, and is available at
http://www.eclipse.org/legal/epl-v20.html
This file may also be made available under the following Secondary
Licenses when the conditions for such availability set forth in the Eclipse
Public License 2.0 are satisfied: GNU General Public License, version 2
or later which is available at
https://www.gnu.org/licenses/old-licenses/gpl-2.0-standalone.html
SPDX-License-Identifier: EPL-2.0 OR GPL-2.0-or-later
<sumoConfiguration xmlns:xsi="http://www.w3.org/2001/XMLSchema-instance" xsi:noNamespaceSchemaLocation="http://sumo.dlr.de/xsd/sumoConfiguration.xsd">

    <input>
        <net-file value="net.net.xml"/>
        <route-files value="input_routes.rou.xml"/>
        <additional-files value="input_additional.add.xml"/>
    </input>

    <output>
        <write-license value="true"/>
        <vehroute-output value="vehroutes.xml"/>
    </output>

    <processing>
        <default.speeddev value="0"/>
    </processing>

    <routing>
        <device.rerouting.mode value="8"/>
    </routing>

    <report>
        <xml-validation value="never"/>
        <no-step-log value="true"/>
    </report>

</sumoConfiguration>
-->

<routes xmlns:xsi="http://www.w3.org/2001/XMLSchema-instance" xsi:noNamespaceSchemaLocation="http://sumo.dlr.de/xsd/routes_file.xsd">
    <vehicle id="tripCloseEnroute" depart="0.00" arrival="207.00">
        <routeDistribution>
            <route replacedOnEdge="beg2" replacedOnIndex="1" reason="rr" replacedAtTime="16.00" probability="0" edges="beg beg2 middle middle2 end end2"/>
            <route edges="beg beg2 left left2 end end2"/>
        </routeDistribution>
    </vehicle>

    <vehicle id="tripClosedAlready" depart="1000.00" arrival="1207.00">
        <routeDistribution>
            <route replacedOnEdge="beg2" replacedOnIndex="1" reason="rr" replacedAtTime="1016.00" probability="0" edges="beg beg2 middle middle2 end end2"/>
            <route edges="beg beg2 left left2 end end2"/>
        </routeDistribution>
    </vehicle>

</routes>
