<?xml version="1.0" encoding="UTF-8"?>

<!-- generated on Sun Nov 17 02:14:06 2019 by Eclipse SUMO Version v1_3_1+0914-4d88552704
This data file and the accompanying materials
are made available under the terms of the Eclipse Public License v2.0
which accompanies this distribution, and is available at
http://www.eclipse.org/legal/epl-v20.html
SPDX-License-Identifier: EPL-2.0
<configuration xmlns:xsi="http://www.w3.org/2001/XMLSchema-instance" xsi:noNamespaceSchemaLocation="http://sumo.dlr.de/xsd/sumoConfiguration.xsd">

    <input>
        <net-file value="motorway.net.xml"/>
        <route-files value="input_routes.rou.xml"/>
    </input>

    <output>
        <write-license value="true"/>
        <tripinfo-output value="tripinfos.xml"/>
        <lanechange-output value="lanechanges.xml"/>
        <lanechange-output.started value="true"/>
        <lanechange-output.ended value="true"/>
    </output>

    <time>
        <step-length value="0.5"/>
    </time>

    <processing>
        <lateral-resolution value="3.2"/>
        <default.speeddev value="0"/>
    </processing>

    <report>
        <xml-validation value="never"/>
        <no-step-log value="true"/>
    </report>

    <gui_only>
        <tracker-interval value="0.5"/>
    </gui_only>

</configuration>
-->

<tripinfos xmlns:xsi="http://www.w3.org/2001/XMLSchema-instance" xsi:noNamespaceSchemaLocation="http://sumo.dlr.de/xsd/tripinfo_file.xsd">
    <tripinfo id="slow" depart="0.00" departLane="beg_1" departPos="200.00" departPosLat="0.00" departSpeed="25.20" departDelay="0.00" arrival="112.50" arrivalLane="beg_1" arrivalPos="2996.00" arrivalPosLat="0.00" arrivalSpeed="24.64" duration="112.50" routeLength="2796.00" waitingTime="0.00" waitingCount="0" stopTime="0.00" timeLoss="1.44" rerouteNo="1" devices="tripinfo_slow routing_slow" vType="slow" speedFactor="0.70" vaporized=""/>
    <tripinfo id="ego" depart="0.00" departLane="beg_0" departPos="5.10" departPosLat="0.00" departSpeed="36.00" departDelay="0.00" arrival="114.00" arrivalLane="beg_1" arrivalPos="2996.00" arrivalPosLat="-1.45" arrivalSpeed="28.38" duration="114.00" routeLength="2990.90" waitingTime="0.00" waitingCount="0" stopTime="0.00" timeLoss="30.66" rerouteNo="1" devices="tripinfo_ego routing_ego" vType="DEFAULT_VEHTYPE" speedFactor="1.00" vaporized=""/>
</tripinfos>
