<?xml version="1.0" encoding="UTF-8"?>

<!-- generated on 2025-09-25T13:45:28.888960+01:00 by Eclipse SUMO sumo v1_24_0+0988-90d076c371e
This data file and the accompanying materials
are made available under the terms of the Eclipse Public License v2.0
which accompanies this distribution, and is available at
http://www.eclipse.org/legal/epl-v20.html
This file may also be made available under the following Secondary
Licenses when the conditions for such availability set forth in the Eclipse
Public License 2.0 are satisfied: GNU General Public License, version 2
or later which is available at
https://www.gnu.org/licenses/old-licenses/gpl-2.0-standalone.html
SPDX-License-Identifier: EPL-2.0 OR GPL-2.0-or-later
<sumoConfiguration xmlns:xsi="http://www.w3.org/2001/XMLSchema-instance" xsi:noNamespaceSchemaLocation="http://sumo.dlr.de/xsd/sumoConfiguration.xsd">

    <input>
        <net-file value="net.net.xml"/>
        <route-files value="input_routes.rou.xml"/>
        <additional-files value="input_additional.add.xml"/>
    </input>

    <output>
        <write-license value="true"/>
    </output>

    <time>
        <end value="1000"/>
    </time>

    <processing>
        <default.speeddev value="0.1"/>
    </processing>

    <report>
        <verbose value="true"/>
        <xml-validation value="never"/>
        <duration-log.statistics value="true"/>
        <no-step-log value="true"/>
    </report>

</sumoConfiguration>
-->

<meandata xmlns:xsi="http://www.w3.org/2001/XMLSchema-instance" xsi:noNamespaceSchemaLocation="http://sumo.dlr.de/xsd/meandata_file.xsd">
    <interval begin="0.00" end="100.00" id="dump_15">
        <edge id="beg" sampledSeconds="1183.34" traveltime="16.84" overlapTraveltime="17.01" density="23.67" laneDensity="7.89" occupancy="3.90" waitingTime="0.00" timeLoss="26.42" speed="29.69" speedRelative="1.07" departed="77" arrived="0" entered="0" left="64" laneChangedFrom="37" laneChangedTo="37"/>
        <edge id="end" sampledSeconds="967.88" traveltime="16.80" overlapTraveltime="16.97" density="19.36" laneDensity="6.45" occupancy="3.20" waitingTime="0.00" timeLoss="21.36" speed="29.76" speedRelative="1.07" departed="0" arrived="49" entered="64" left="0" laneChangedFrom="0" laneChangedTo="0"/>
    </interval>
    <interval begin="100.00" end="200.00" id="dump_15">
        <edge id="beg" sampledSeconds="1288.71" traveltime="16.59" overlapTraveltime="16.75" density="25.77" laneDensity="8.59" occupancy="4.25" waitingTime="0.00" timeLoss="29.47" speed="30.15" speedRelative="1.08" departed="77" arrived="0" entered="0" left="78" laneChangedFrom="39" laneChangedTo="39"/>
        <edge id="end" sampledSeconds="1290.62" traveltime="16.60" overlapTraveltime="16.76" density="25.81" laneDensity="8.60" occupancy="4.26" waitingTime="0.00" timeLoss="24.49" speed="30.13" speedRelative="1.08" departed="0" arrived="79" entered="78" left="0" laneChangedFrom="0" laneChangedTo="0"/>
    </interval>
    <interval begin="200.00" end="300.00" id="dump_15">
        <edge id="beg" sampledSeconds="1307.55" traveltime="16.82" overlapTraveltime="16.98" density="26.15" laneDensity="8.72" occupancy="4.31" waitingTime="0.00" timeLoss="34.67" speed="29.74" speedRelative="1.07" departed="77" arrived="0" entered="0" left="75" laneChangedFrom="40" laneChangedTo="40"/>
        <edge id="end" sampledSeconds="1291.56" traveltime="16.67" overlapTraveltime="16.84" density="25.83" laneDensity="8.61" occupancy="4.27" waitingTime="0.00" timeLoss="24.78" speed="29.99" speedRelative="1.08" departed="0" arrived="76" entered="75" left="0" laneChangedFrom="0" laneChangedTo="0"/>
    </interval>
    <interval begin="300.00" end="400.00" id="dump_15">
        <edge id="beg" sampledSeconds="1310.10" traveltime="16.82" overlapTraveltime="16.98" density="26.20" laneDensity="8.73" occupancy="4.32" waitingTime="0.00" timeLoss="31.32" speed="29.73" speedRelative="1.07" departed="76" arrived="0" entered="0" left="78" laneChangedFrom="47" laneChangedTo="47"/>
        <edge id="end" sampledSeconds="1295.22" traveltime="16.73" overlapTraveltime="16.89" density="25.90" laneDensity="8.63" occupancy="4.28" waitingTime="0.00" timeLoss="23.00" speed="29.90" speedRelative="1.08" departed="0" arrived="78" entered="78" left="0" laneChangedFrom="1" laneChangedTo="1"/>
    </interval>
    <interval begin="400.00" end="500.00" id="dump_15">
        <edge id="beg" sampledSeconds="1293.91" traveltime="16.73" overlapTraveltime="16.90" density="25.88" laneDensity="8.63" occupancy="4.27" waitingTime="0.00" timeLoss="29.79" speed="29.89" speedRelative="1.08" departed="77" arrived="0" entered="0" left="76" laneChangedFrom="43" laneChangedTo="43"/>
        <edge id="end" sampledSeconds="1307.12" traveltime="16.70" overlapTraveltime="16.87" density="26.14" laneDensity="8.71" occupancy="4.32" waitingTime="0.00" timeLoss="33.16" speed="29.94" speedRelative="1.08" departed="0" arrived="77" entered="76" left="0" laneChangedFrom="0" laneChangedTo="0"/>
    </interval>
    <interval begin="500.00" end="600.00" id="dump_15">
        <edge id="beg" sampledSeconds="1296.52" traveltime="16.69" overlapTraveltime="16.85" density="25.93" laneDensity="8.64" occupancy="4.28" waitingTime="0.00" timeLoss="34.06" speed="29.97" speedRelative="1.08" departed="77" arrived="0" entered="0" left="77" laneChangedFrom="47" laneChangedTo="47"/>
        <edge id="end" sampledSeconds="1268.06" traveltime="16.48" overlapTraveltime="16.64" density="25.36" laneDensity="8.45" occupancy="4.19" waitingTime="0.00" timeLoss="18.95" speed="30.34" speedRelative="1.09" departed="0" arrived="75" entered="77" left="0" laneChangedFrom="0" laneChangedTo="0"/>
    </interval>
    <interval begin="600.00" end="700.00" id="dump_15">
        <edge id="beg" sampledSeconds="1308.69" traveltime="16.79" overlapTraveltime="16.96" density="26.17" laneDensity="8.72" occupancy="4.32" waitingTime="0.00" timeLoss="41.67" speed="29.78" speedRelative="1.07" departed="77" arrived="0" entered="0" left="76" laneChangedFrom="44" laneChangedTo="44"/>
        <edge id="end" sampledSeconds="1286.46" traveltime="16.65" overlapTraveltime="16.82" density="25.73" laneDensity="8.58" occupancy="4.25" waitingTime="0.00" timeLoss="29.51" speed="30.03" speedRelative="1.08" departed="0" arrived="77" entered="76" left="0" laneChangedFrom="3" laneChangedTo="3"/>
    </interval>
    <interval begin="700.00" end="800.00" id="dump_15">
        <edge id="beg" sampledSeconds="1305.64" traveltime="16.83" overlapTraveltime="17.00" density="26.11" laneDensity="8.70" occupancy="4.31" waitingTime="0.00" timeLoss="26.31" speed="29.70" speedRelative="1.07" departed="77" arrived="0" entered="0" left="77" laneChangedFrom="39" laneChangedTo="39"/>
        <edge id="end" sampledSeconds="1335.71" traveltime="16.94" overlapTraveltime="17.11" density="26.71" laneDensity="8.90" occupancy="4.41" waitingTime="0.00" timeLoss="35.64" speed="29.52" speedRelative="1.06" departed="0" arrived="79" entered="77" left="0" laneChangedFrom="1" laneChangedTo="1"/>
    </interval>
    <interval begin="800.00" end="900.00" id="dump_15">
        <edge id="beg" sampledSeconds="1291.65" traveltime="16.60" overlapTraveltime="16.76" density="25.83" laneDensity="8.61" occupancy="4.26" waitingTime="0.00" timeLoss="23.88" speed="30.13" speedRelative="1.08" departed="77" arrived="0" entered="0" left="78" laneChangedFrom="45" laneChangedTo="45"/>
        <edge id="end" sampledSeconds="1287.08" traveltime="16.64" overlapTraveltime="16.80" density="25.74" laneDensity="8.58" occupancy="4.25" waitingTime="0.00" timeLoss="22.68" speed="30.06" speedRelative="1.08" departed="0" arrived="77" entered="78" left="0" laneChangedFrom="0" laneChangedTo="0"/>
    </interval>
    <interval begin="900.00" end="1000.00" id="dump_15">
        <edge id="beg" sampledSeconds="1295.98" traveltime="16.69" overlapTraveltime="16.86" density="25.92" laneDensity="8.64" occupancy="4.28" waitingTime="0.00" timeLoss="31.69" speed="29.96" speedRelative="1.08" departed="77" arrived="0" entered="0" left="76" laneChangedFrom="41" laneChangedTo="41"/>
        <edge id="end" sampledSeconds="1289.10" traveltime="16.68" overlapTraveltime="16.84" density="25.78" laneDensity="8.59" occupancy="4.26" waitingTime="0.00" timeLoss="32.93" speed="29.98" speedRelative="1.08" departed="0" arrived="75" entered="76" left="0" laneChangedFrom="0" laneChangedTo="0"/>
    </interval>
</meandata>
