<?xml version="1.0" encoding="UTF-8"?>

<!-- generated on 2026-04-09T16:38:02.695893+01:00 by Eclipse SUMO sumo v1_26_0+1034-8d7c6592743
This data file and the accompanying materials
are made available under the terms of the Eclipse Public License v2.0
which accompanies this distribution, and is available at
http://www.eclipse.org/legal/epl-v20.html
This file may also be made available under the following Secondary
Licenses when the conditions for such availability set forth in the Eclipse
Public License 2.0 are satisfied: GNU General Public License, version 2
or later which is available at
https://www.gnu.org/licenses/old-licenses/gpl-2.0-standalone.html
SPDX-License-Identifier: EPL-2.0 OR GPL-2.0-or-later
<sumoConfiguration xmlns:xsi="http://www.w3.org/2001/XMLSchema-instance" xsi:noNamespaceSchemaLocation="http://sumo.dlr.de/xsd/sumoConfiguration.xsd">

    <input>
        <net-file value="net.net.xml"/>
        <route-files value="input_trips.trips.xml"/>
        <additional-files value="input_districts.taz.xml"/>
    </input>

    <output>
        <write-license value="true"/>
        <vehroute-output value="vehroutes.xml"/>
    </output>

    <processing>
        <default.speeddev value="0"/>
    </processing>

    <routing>
        <routing-algorithm value="astar"/>
        <astar.landmark-distances value="lookuptable"/>
    </routing>

    <report>
        <verbose value="true"/>
        <xml-validation value="never"/>
        <no-step-log value="true"/>
    </report>

    <mesoscopic>
        <mesosim value="true"/>
    </mesoscopic>

</sumoConfiguration>
-->

<routes xmlns:xsi="http://www.w3.org/2001/XMLSchema-instance" xsi:noNamespaceSchemaLocation="http://sumo.dlr.de/xsd/routes_file.xsd">
    <vehicle id="0" depart="0.00" fromTaz="1" toTaz="2" arrival="64.00">
        <route edges="5/5to5/6 5/6to5/7 5/7to5/8 5/8to5/9 5/9to6/9 6/9to7/9 7/9to8/9 8/9to9/9 9/9to9/8"/>
    </vehicle>

</routes>
