<?xml version="1.0" encoding="UTF-8"?>

<!-- generated on 2025-04-04 13:37:14 by Eclipse SUMO sumo Version v1_22_0+1267-307a6af801d
This data file and the accompanying materials
are made available under the terms of the Eclipse Public License v2.0
which accompanies this distribution, and is available at
http://www.eclipse.org/legal/epl-v20.html
This file may also be made available under the following Secondary
Licenses when the conditions for such availability set forth in the Eclipse
Public License 2.0 are satisfied: GNU General Public License, version 2
or later which is available at
https://www.gnu.org/licenses/old-licenses/gpl-2.0-standalone.html
SPDX-License-Identifier: EPL-2.0 OR GPL-2.0-or-later
<sumoConfiguration xmlns:xsi="http://www.w3.org/2001/XMLSchema-instance" xsi:noNamespaceSchemaLocation="http://sumo.dlr.de/xsd/sumoConfiguration.xsd">

    <input>
        <net-file value="net.net.xml"/>
        <route-files value="input_routes.rou.xml"/>
    </input>

    <output>
        <write-license value="true"/>
        <tripinfo-output value="tripinfos.xml"/>
    </output>

    <time>
        <begin value="170"/>
        <step-length value="0.1"/>
    </time>

    <processing>
        <lateral-resolution value="0.3"/>
        <default.speeddev value="0"/>
        <pedestrian.model value="striping"/>
        <pedestrian.striping.stripe-width value="0.48"/>
        <pedestrian.striping.dawdling value="0.5"/>
    </processing>

    <report>
        <xml-validation value="never"/>
        <no-step-log value="true"/>
    </report>

</sumoConfiguration>
-->

<tripinfos xmlns:xsi="http://www.w3.org/2001/XMLSchema-instance" xsi:noNamespaceSchemaLocation="http://sumo.dlr.de/xsd/tripinfo_file.xsd">
    <tripinfo id="bike2869" depart="186.20" departLane="-34001206#18_0" departPos="10.00" departPosLat="0.00" departSpeed="0.00" departDelay="0.00" arrival="203.30" arrivalLane="-34001206#17_0" arrivalPos="15.75" arrivalPosLat="0.00" arrivalSpeed="2.85" duration="17.10" routeLength="36.36" waitingTime="1.20" waitingCount="1" stopTime="0.00" timeLoss="4.39" rerouteNo="0" devices="tripinfo_bike2869 routing_bike2869" vType="bike_bicycle" speedFactor="1.03" vaporized=""/>
    <personinfo id="ped4877" depart="186.20" type="ped_pedestrian" speedFactor="1.00" duration="21.60" waitingTime="0.00" timeLoss="5.66" traveltime="21.60">
        <walk depart="186.20" departPos="0.00" arrival="207.80" arrivalPos="8.46" duration="21.60" routeLength="22.15" timeLoss="5.66" maxSpeed="1.39"/>
    </personinfo>
    <personinfo id="ped4843" depart="176.80" type="ped_pedestrian" speedFactor="1.00" duration="37.60" waitingTime="0.00" timeLoss="9.89" traveltime="37.60">
        <walk depart="176.80" departPos="0.00" arrival="214.40" arrivalPos="7.88" duration="37.60" routeLength="38.49" timeLoss="9.89" maxSpeed="1.39"/>
    </personinfo>
    <personinfo id="ped4943" depart="247.50" type="ped_pedestrian" speedFactor="1.00" duration="36.70" waitingTime="0.00" timeLoss="8.99" traveltime="36.70">
        <walk depart="247.50" departPos="0.00" arrival="284.20" arrivalPos="7.88" duration="36.70" routeLength="38.49" timeLoss="8.99" maxSpeed="1.39"/>
    </personinfo>
</tripinfos>
