<?xml version="1.0" encoding="UTF-8"?>

<!-- generated on Mon May  9 16:38:15 2016 by SUMO Version dev-SVN-r20666
<?xml version="1.0" encoding="UTF-8"?>

<configuration xmlns:xsi="http://www.w3.org/2001/XMLSchema-instance" xsi:noNamespaceSchemaLocation="http://sumo.dlr.de/xsd/sumoConfiguration.xsd">

    <input>
        <net-file value="motorway.net.xml"/>
        <route-files value="input_routes.rou.xml"/>
    </input>

    <output>
        <tripinfo-output value="tripinfos.xml"/>
    </output>

    <report>
        <xml-validation value="never"/>
        <duration-log.disable value="true"/>
        <no-step-log value="true"/>
    </report>

</configuration>
-->

<tripinfos xmlns:xsi="http://www.w3.org/2001/XMLSchema-instance" xsi:noNamespaceSchemaLocation="http://sumo.dlr.de/xsd/tripinfo_file.xsd">
    <tripinfo id="overtaking" depart="10.00" departLane="beg_0" departPos="2698.50" departSpeed="36.00" departDelay="0.00" arrival="19.00" arrivalLane="beg_1" arrivalPos="2998.50" arrivalSpeed="36.00" duration="9.00" routeLength="300.00" waitSteps="0" timeLoss="0.12" rerouteNo="0" devices="tripinfo_overtaking" vType="DEFAULT_VEHTYPE" vaporized=""/>
    <tripinfo id="stopped" depart="0.00" departLane="beg_0" departPos="2698.50" departSpeed="36.00" departDelay="0.00" arrival="118.00" arrivalLane="beg_0" arrivalPos="2998.50" arrivalSpeed="15.60" duration="118.00" routeLength="300.00" waitSteps="1" timeLoss="8.59" rerouteNo="0" devices="tripinfo_stopped" vType="DEFAULT_VEHTYPE" vaporized=""/>
</tripinfos>
