<?xml version="1.0" encoding="UTF-8"?>

<!-- generated on 2026-04-14T01:09:36.188480+01:00 by Eclipse SUMO sumo v1_26_0+1123-334e341037c
<sumoConfiguration xmlns:xsi="http://www.w3.org/2001/XMLSchema-instance" xsi:noNamespaceSchemaLocation="http://sumo.dlr.de/xsd/sumoConfiguration.xsd">

    <input>
        <net-file value="net.net.xml"/>
        <route-files value="input_routes.rou.xml"/>
        <additional-files value="input_additional.add.xml"/>
    </input>

    <output>
        <tripinfo-output value="tripinfos.xml"/>
        <vehroute-output value="vehroutes.xml"/>
        <vehroute-output.write-unfinished value="true"/>
        <railsignal-vehicle-output value="railsignal_vehicles.xml"/>
    </output>

    <routing>
        <persontrip.transfer.taxi-walk value="ptStops"/>
        <persontrip.transfer.walk-taxi value="ptStops"/>
    </routing>

    <report>
        <duration-log.disable value="true"/>
        <no-step-log value="true"/>
    </report>

    <taxi_device>
        <device.taxi.dispatch-period value="30"/>
        <device.taxi.vclasses value="rail"/>
    </taxi_device>

</sumoConfiguration>
-->

<railsignal-vehicle-output>
    <railSignal id="J2">
        <link linkIndex="0" from="-E2_0" to=":J2_0_0"/>
        <link linkIndex="1" from="E1_0" to=":J2_1_0">
            <driveWay id="J2.0">
                <entry id="t_0" time="59.00" reason="junction"/>
                <exit id="t_0" time="123.00" reason="parking"/>
            </driveWay>
        </link>
    </railSignal>
    <railSignal id="J6">
        <link linkIndex="0" from="E5_0" to=":J6_0_0">
            <driveWay id="J6.0">
                <entry id="t_0" time="115.00" reason="junction"/>
                <exit id="t_0" time="123.00" reason="parking"/>
            </driveWay>
        </link>
        <link linkIndex="1" from="-E6_0" to=":J6_1_0"/>
    </railSignal>
    <departJunction id="J8">
        <driveWay id="J8.d0">
            <entry id="t_0" time="0.00" reason="departed"/>
            <exit id="t_0" time="1.00" reason="reroute"/>
        </driveWay>
        <subDriveWay id="J8.d0.0">
            <entry id="t_0" time="0.00" reason="departed"/>
            <exit id="t_0" time="39.00" reason="junction"/>
        </subDriveWay>
        <driveWay id="J8.d1">
            <entry id="t_0" time="0.00" reason="reroute"/>
            <exit id="t_0" time="1.00" reason="reroute"/>
        </driveWay>
        <driveWay id="J8.d2">
            <entry id="t_0" time="0.00" reason="reroute"/>
            <exit id="t_0" time="52.00" reason="parking"/>
        </driveWay>
        <subDriveWay id="J8.d2.0"/>
        <subDriveWay id="J8.d2.1"/>
    </departJunction>
    <departJunction id="J1">
        <driveWay id="J1.d0"/>
        <driveWay id="J1.d1">
            <entry id="t_0" time="52.00" reason="parking"/>
            <exit id="t_0" time="64.00" reason="junction"/>
        </driveWay>
    </departJunction>
    <departJunction id="J6">
        <driveWay id="J6.d0">
            <entry id="t_0" time="183.00" reason="parking"/>
            <exit id="t_0" time="184.00" reason="parking"/>
        </driveWay>
    </departJunction>
</railsignal-vehicle-output>
