<?xml version="1.0" encoding="UTF-8"?>

<!-- generated on 2026-04-10T16:37:01.084205+01:00 by Eclipse SUMO sumo v1_26_0+1074-0d0ca2f0495
<sumoConfiguration xmlns:xsi="http://www.w3.org/2001/XMLSchema-instance" xsi:noNamespaceSchemaLocation="http://sumo.dlr.de/xsd/sumoConfiguration.xsd">

    <input>
        <net-file value="004/../input_net.net.xml"/>
        <route-files value="004/input_trips_004.rou.xml.gz"/>
        <additional-files value="004/../edgedata.add.xml"/>
    </input>

    <output>
        <output-prefix value="004/"/>
        <summary-output value="004/../summary_004.xml"/>
        <tripinfo-output value="004/../tripinfo_004.xml"/>
    </output>

    <time>
        <begin value="0"/>
    </time>

    <processing>
        <route-steps value="200"/>
        <no-internal-links value="False"/>
        <time-to-teleport value="300"/>
        <time-to-teleport.highways value="0"/>
        <eager-insert value="False"/>
    </processing>

    <report>
        <verbose value="true"/>
        <no-warnings value="False"/>
        <log value="004/../iteration_004.sumo.log"/>
        <no-step-log value="true"/>
    </report>

    <random_number>
        <random value="False"/>
    </random_number>

</sumoConfiguration>
-->

<tripinfos xmlns:xsi="http://www.w3.org/2001/XMLSchema-instance" xsi:noNamespaceSchemaLocation="http://sumo.dlr.de/xsd/tripinfo_file.xsd">
    <tripinfo id="0" depart="0.00" departLane="beg2left_0" departPos="5.10" departSpeed="27.80" departDelay="0.00" arrival="69.00" arrivalLane="left2end_0" arrivalPos="503.09" arrivalSpeed="29.47" duration="69.00" routeLength="2007.26" waitingTime="0.00" waitingCount="0" stopTime="0.00" timeLoss="0.00" rerouteNo="0" devices="tripinfo_0" vType="t" speedFactor="1.06" vaporized=""/>
    <tripinfo id="1" depart="10.00" departLane="beg2left_0" departPos="5.10" departSpeed="26.08" departDelay="0.00" arrival="87.00" arrivalLane="left2end_0" arrivalPos="503.09" arrivalSpeed="26.08" duration="77.00" routeLength="2007.26" waitingTime="0.00" waitingCount="0" stopTime="0.00" timeLoss="0.00" rerouteNo="0" devices="tripinfo_1" vType="t" speedFactor="0.94" vaporized=""/>
    <tripinfo id="2" depart="20.00" departLane="middle_0" departPos="5.10" departSpeed="13.90" departDelay="0.00" arrival="91.00" arrivalLane="middle_0" arrivalPos="1000.00" arrivalSpeed="14.04" duration="71.00" routeLength="994.90" waitingTime="0.00" waitingCount="0" stopTime="0.00" timeLoss="0.00" rerouteNo="0" devices="tripinfo_2" vType="t" speedFactor="1.01" vaporized=""/>
    <tripinfo id="3" depart="30.00" departLane="middle_0" departPos="5.10" departSpeed="14.04" departDelay="0.00" arrival="97.00" arrivalLane="middle_0" arrivalPos="1000.00" arrivalSpeed="15.05" duration="67.00" routeLength="994.90" waitingTime="0.00" waitingCount="0" stopTime="0.00" timeLoss="0.00" rerouteNo="0" devices="tripinfo_3" vType="t" speedFactor="1.08" vaporized=""/>
    <tripinfo id="4" depart="40.00" departLane="beg2left_0" departPos="5.10" departSpeed="27.80" departDelay="0.00" arrival="111.00" arrivalLane="left2end_0" arrivalPos="503.09" arrivalSpeed="28.64" duration="71.00" routeLength="2007.26" waitingTime="0.00" waitingCount="0" stopTime="0.00" timeLoss="0.00" rerouteNo="0" devices="tripinfo_4" vType="t" speedFactor="1.03" vaporized=""/>
    <tripinfo id="6" depart="60.00" departLane="beg2left_0" departPos="5.10" departSpeed="27.80" departDelay="0.00" arrival="130.00" arrivalLane="left2end_0" arrivalPos="503.09" arrivalSpeed="29.07" duration="70.00" routeLength="2007.26" waitingTime="0.00" waitingCount="0" stopTime="0.00" timeLoss="0.00" rerouteNo="0" devices="tripinfo_6" vType="t" speedFactor="1.05" vaporized=""/>
    <tripinfo id="5" depart="50.00" departLane="middle_0" departPos="5.10" departSpeed="11.55" departDelay="0.00" arrival="137.00" arrivalLane="middle_0" arrivalPos="1000.00" arrivalSpeed="11.55" duration="87.00" routeLength="994.90" waitingTime="0.00" waitingCount="0" stopTime="0.00" timeLoss="0.00" rerouteNo="0" devices="tripinfo_5" vType="t" speedFactor="0.83" vaporized=""/>
    <tripinfo id="7" depart="70.00" departLane="middle_0" departPos="5.10" departSpeed="12.32" departDelay="0.00" arrival="151.00" arrivalLane="middle_0" arrivalPos="1000.00" arrivalSpeed="12.32" duration="81.00" routeLength="994.90" waitingTime="0.00" waitingCount="0" stopTime="0.00" timeLoss="0.00" rerouteNo="0" devices="tripinfo_7" vType="t" speedFactor="0.89" vaporized=""/>
    <tripinfo id="8" depart="80.00" departLane="beg2left_0" departPos="5.10" departSpeed="26.07" departDelay="0.00" arrival="157.00" arrivalLane="left2end_0" arrivalPos="503.09" arrivalSpeed="26.07" duration="77.00" routeLength="2007.26" waitingTime="0.00" waitingCount="0" stopTime="0.00" timeLoss="0.00" rerouteNo="0" devices="tripinfo_8" vType="t" speedFactor="0.94" vaporized=""/>
    <tripinfo id="9" depart="90.00" departLane="beg2left_0" departPos="5.10" departSpeed="23.82" departDelay="0.00" arrival="175.00" arrivalLane="left2end_0" arrivalPos="503.09" arrivalSpeed="23.82" duration="85.00" routeLength="2007.26" waitingTime="0.00" waitingCount="0" stopTime="0.00" timeLoss="0.00" rerouteNo="0" devices="tripinfo_9" vType="t" speedFactor="0.86" vaporized=""/>
</tripinfos>
