<?xml version="1.0" encoding="UTF-8"?>

<!-- generated on 2023-03-01 14:32:33 by Eclipse SUMO sumo Version v1_16_0+0853-bb3bf2e
This data file and the accompanying materials
are made available under the terms of the Eclipse Public License v2.0
which accompanies this distribution, and is available at
http://www.eclipse.org/legal/epl-v20.html
This file may also be made available under the following Secondary
Licenses when the conditions for such availability set forth in the Eclipse
Public License 2.0 are satisfied: GNU General Public License, version 2
or later which is available at
https://www.gnu.org/licenses/old-licenses/gpl-2.0-standalone.html
SPDX-License-Identifier: EPL-2.0 OR GPL-2.0-or-later
<configuration xmlns:xsi="http://www.w3.org/2001/XMLSchema-instance" xsi:noNamespaceSchemaLocation="http://sumo.dlr.de/xsd/sumoConfiguration.xsd">

    <input>
        <net-file value="net.net.xml"/>
        <route-files value="input_routes.rou.xml"/>
        <additional-files value="input_additional.add.xml"/>
    </input>

    <output>
        <write-license value="true"/>
        <tripinfo-output value="tripinfos.xml"/>
    </output>

    <time>
        <begin value="0"/>
        <end value="600"/>
    </time>

    <processing>
        <tls.all-off value="true"/>
        <default.speeddev value="0"/>
    </processing>

    <report>
        <xml-validation value="never"/>
        <duration-log.disable value="true"/>
        <no-step-log value="true"/>
    </report>

</configuration>
-->

<tripinfos xmlns:xsi="http://www.w3.org/2001/XMLSchema-instance" xsi:noNamespaceSchemaLocation="http://sumo.dlr.de/xsd/tripinfo_file.xsd">
    <tripinfo id="f_1.0" depart="0.00" departLane="1si_0" departPos="5.10" departSpeed="0.00" departDelay="0.00" arrival="76.00" arrivalLane="2o_0" arrivalPos="486.40" arrivalSpeed="10.03" duration="76.00" routeLength="741.12" waitingTime="1.00" waitingCount="1" stopTime="0.00" timeLoss="13.52" rerouteNo="0" devices="tripinfo_f_1.0" vType="DEFAULT_VEHTYPE" speedFactor="1.00" vaporized=""/>
    <tripinfo id="f_0.0" depart="0.00" departLane="3si_0" departPos="5.10" departSpeed="0.00" departDelay="0.00" arrival="79.00" arrivalLane="4o_0" arrivalPos="486.40" arrivalSpeed="10.48" duration="79.00" routeLength="741.12" waitingTime="3.00" waitingCount="2" stopTime="0.00" timeLoss="16.21" rerouteNo="0" devices="tripinfo_f_0.0" vType="DEFAULT_VEHTYPE" speedFactor="1.00" vaporized=""/>
    <tripinfo id="f_1.1" depart="3.00" departLane="1si_0" departPos="5.10" departSpeed="0.00" departDelay="1.00" arrival="83.00" arrivalLane="2o_0" arrivalPos="486.40" arrivalSpeed="10.13" duration="80.00" routeLength="741.12" waitingTime="1.00" waitingCount="1" stopTime="0.00" timeLoss="16.94" rerouteNo="0" devices="tripinfo_f_1.1" vType="DEFAULT_VEHTYPE" speedFactor="1.00" vaporized=""/>
    <tripinfo id="f_0.1" depart="2.00" departLane="3si_0" departPos="5.10" departSpeed="0.00" departDelay="0.00" arrival="86.00" arrivalLane="4o_0" arrivalPos="486.40" arrivalSpeed="10.73" duration="84.00" routeLength="741.12" waitingTime="2.00" waitingCount="2" stopTime="0.00" timeLoss="21.09" rerouteNo="0" devices="tripinfo_f_0.1" vType="DEFAULT_VEHTYPE" speedFactor="1.00" vaporized=""/>
    <tripinfo id="f_1.2" depart="7.00" departLane="1si_0" departPos="5.10" departSpeed="0.00" departDelay="3.00" arrival="89.00" arrivalLane="2o_0" arrivalPos="486.40" arrivalSpeed="11.01" duration="82.00" routeLength="741.12" waitingTime="2.00" waitingCount="2" stopTime="0.00" timeLoss="19.57" rerouteNo="0" devices="tripinfo_f_1.2" vType="DEFAULT_VEHTYPE" speedFactor="1.00" vaporized=""/>
    <tripinfo id="f_0.2" depart="6.00" departLane="3si_0" departPos="5.10" departSpeed="0.00" departDelay="2.00" arrival="93.00" arrivalLane="4o_0" arrivalPos="486.40" arrivalSpeed="10.42" duration="87.00" routeLength="741.12" waitingTime="2.00" waitingCount="2" stopTime="0.00" timeLoss="23.91" rerouteNo="0" devices="tripinfo_f_0.2" vType="DEFAULT_VEHTYPE" speedFactor="1.00" vaporized=""/>
    <tripinfo id="f_1.3" depart="10.00" departLane="1si_0" departPos="5.10" departSpeed="0.00" departDelay="4.00" arrival="97.00" arrivalLane="2o_0" arrivalPos="486.40" arrivalSpeed="10.80" duration="87.00" routeLength="741.12" waitingTime="1.00" waitingCount="1" stopTime="0.00" timeLoss="23.74" rerouteNo="0" devices="tripinfo_f_1.3" vType="DEFAULT_VEHTYPE" speedFactor="1.00" vaporized=""/>
    <tripinfo id="f_0.3" depart="9.00" departLane="3si_0" departPos="5.10" departSpeed="0.00" departDelay="3.00" arrival="100.00" arrivalLane="4o_0" arrivalPos="486.40" arrivalSpeed="11.04" duration="91.00" routeLength="741.12" waitingTime="2.00" waitingCount="2" stopTime="0.00" timeLoss="28.01" rerouteNo="0" devices="tripinfo_f_0.3" vType="DEFAULT_VEHTYPE" speedFactor="1.00" vaporized=""/>
    <tripinfo id="f_1.4" depart="13.00" departLane="1si_0" departPos="5.10" departSpeed="0.00" departDelay="5.00" arrival="104.00" arrivalLane="2o_0" arrivalPos="486.40" arrivalSpeed="10.62" duration="91.00" routeLength="741.12" waitingTime="1.00" waitingCount="1" stopTime="0.00" timeLoss="28.35" rerouteNo="0" devices="tripinfo_f_1.4" vType="DEFAULT_VEHTYPE" speedFactor="1.00" vaporized=""/>
    <tripinfo id="f_0.4" depart="12.00" departLane="3si_0" departPos="5.10" departSpeed="0.00" departDelay="4.00" arrival="108.00" arrivalLane="4o_0" arrivalPos="486.40" arrivalSpeed="10.81" duration="96.00" routeLength="741.12" waitingTime="1.00" waitingCount="1" stopTime="0.00" timeLoss="32.95" rerouteNo="0" devices="tripinfo_f_0.4" vType="DEFAULT_VEHTYPE" speedFactor="1.00" vaporized=""/>
    <tripinfo id="f_1.5" depart="15.00" departLane="1si_0" departPos="5.10" departSpeed="0.00" departDelay="5.00" arrival="110.00" arrivalLane="2o_0" arrivalPos="486.40" arrivalSpeed="10.73" duration="95.00" routeLength="741.12" waitingTime="1.00" waitingCount="1" stopTime="0.00" timeLoss="31.88" rerouteNo="0" devices="tripinfo_f_1.5" vType="DEFAULT_VEHTYPE" speedFactor="1.00" vaporized=""/>
    <tripinfo id="f_0.5" depart="15.00" departLane="3si_0" departPos="5.10" departSpeed="0.00" departDelay="5.00" arrival="115.00" arrivalLane="4o_0" arrivalPos="486.40" arrivalSpeed="10.12" duration="100.00" routeLength="741.12" waitingTime="2.00" waitingCount="2" stopTime="0.00" timeLoss="37.52" rerouteNo="0" devices="tripinfo_f_0.5" vType="DEFAULT_VEHTYPE" speedFactor="1.00" vaporized=""/>
    <tripinfo id="f_1.6" depart="19.00" departLane="1si_0" departPos="5.10" departSpeed="0.00" departDelay="7.00" arrival="116.00" arrivalLane="2o_0" arrivalPos="486.40" arrivalSpeed="10.18" duration="97.00" routeLength="741.12" waitingTime="1.00" waitingCount="1" stopTime="0.00" timeLoss="34.54" rerouteNo="0" devices="tripinfo_f_1.6" vType="DEFAULT_VEHTYPE" speedFactor="1.00" vaporized=""/>
    <tripinfo id="f_0.6" depart="18.00" departLane="3si_0" departPos="5.10" departSpeed="0.00" departDelay="6.00" arrival="122.00" arrivalLane="4o_0" arrivalPos="486.40" arrivalSpeed="10.01" duration="104.00" routeLength="741.12" waitingTime="2.00" waitingCount="2" stopTime="0.00" timeLoss="41.51" rerouteNo="0" devices="tripinfo_f_0.6" vType="DEFAULT_VEHTYPE" speedFactor="1.00" vaporized=""/>
    <tripinfo id="f_1.7" depart="22.00" departLane="1si_0" departPos="5.10" departSpeed="0.00" departDelay="8.00" arrival="124.00" arrivalLane="2o_0" arrivalPos="486.40" arrivalSpeed="10.26" duration="102.00" routeLength="741.12" waitingTime="2.00" waitingCount="2" stopTime="0.00" timeLoss="39.39" rerouteNo="0" devices="tripinfo_f_1.7" vType="DEFAULT_VEHTYPE" speedFactor="1.00" vaporized=""/>
    <tripinfo id="f_0.7" depart="21.00" departLane="3si_0" departPos="5.10" departSpeed="0.00" departDelay="7.00" arrival="127.00" arrivalLane="4o_0" arrivalPos="486.40" arrivalSpeed="11.06" duration="106.00" routeLength="741.12" waitingTime="1.00" waitingCount="1" stopTime="0.00" timeLoss="43.61" rerouteNo="0" devices="tripinfo_f_0.7" vType="DEFAULT_VEHTYPE" speedFactor="1.00" vaporized=""/>
    <tripinfo id="f_1.8" depart="25.00" departLane="1si_0" departPos="5.10" departSpeed="0.00" departDelay="9.00" arrival="131.00" arrivalLane="2o_0" arrivalPos="486.40" arrivalSpeed="10.28" duration="106.00" routeLength="741.12" waitingTime="1.00" waitingCount="1" stopTime="0.00" timeLoss="42.83" rerouteNo="0" devices="tripinfo_f_1.8" vType="DEFAULT_VEHTYPE" speedFactor="1.00" vaporized=""/>
    <tripinfo id="f_0.8" depart="24.00" departLane="3si_0" departPos="5.10" departSpeed="0.00" departDelay="8.00" arrival="134.00" arrivalLane="4o_0" arrivalPos="486.40" arrivalSpeed="10.13" duration="110.00" routeLength="741.12" waitingTime="1.00" waitingCount="1" stopTime="0.00" timeLoss="47.03" rerouteNo="0" devices="tripinfo_f_0.8" vType="DEFAULT_VEHTYPE" speedFactor="1.00" vaporized=""/>
    <tripinfo id="f_1.9" depart="28.00" departLane="1si_0" departPos="5.10" departSpeed="0.00" departDelay="10.00" arrival="137.00" arrivalLane="2o_0" arrivalPos="486.40" arrivalSpeed="11.05" duration="109.00" routeLength="741.12" waitingTime="2.00" waitingCount="2" stopTime="0.00" timeLoss="46.14" rerouteNo="0" devices="tripinfo_f_1.9" vType="DEFAULT_VEHTYPE" speedFactor="1.00" vaporized=""/>
    <tripinfo id="f_0.9" depart="27.00" departLane="3si_0" departPos="5.10" departSpeed="0.00" departDelay="9.00" arrival="140.00" arrivalLane="4o_0" arrivalPos="486.40" arrivalSpeed="10.19" duration="113.00" routeLength="741.12" waitingTime="1.00" waitingCount="1" stopTime="0.00" timeLoss="50.55" rerouteNo="0" devices="tripinfo_f_0.9" vType="DEFAULT_VEHTYPE" speedFactor="1.00" vaporized=""/>
    <tripinfo id="f_1.10" depart="31.00" departLane="1si_0" departPos="5.10" departSpeed="0.00" departDelay="11.00" arrival="143.00" arrivalLane="2o_0" arrivalPos="486.40" arrivalSpeed="10.90" duration="112.00" routeLength="741.12" waitingTime="2.00" waitingCount="2" stopTime="0.00" timeLoss="49.00" rerouteNo="0" devices="tripinfo_f_1.10" vType="DEFAULT_VEHTYPE" speedFactor="1.00" vaporized=""/>
    <tripinfo id="f_0.10" depart="30.00" departLane="3si_0" departPos="5.10" departSpeed="0.00" departDelay="10.00" arrival="146.00" arrivalLane="4o_0" arrivalPos="486.40" arrivalSpeed="10.71" duration="116.00" routeLength="741.12" waitingTime="1.00" waitingCount="1" stopTime="0.00" timeLoss="53.32" rerouteNo="0" devices="tripinfo_f_0.10" vType="DEFAULT_VEHTYPE" speedFactor="1.00" vaporized=""/>
    <tripinfo id="f_1.11" depart="34.00" departLane="1si_0" departPos="5.10" departSpeed="0.00" departDelay="12.00" arrival="149.00" arrivalLane="2o_0" arrivalPos="486.40" arrivalSpeed="10.48" duration="115.00" routeLength="741.12" waitingTime="2.00" waitingCount="2" stopTime="0.00" timeLoss="52.21" rerouteNo="0" devices="tripinfo_f_1.11" vType="DEFAULT_VEHTYPE" speedFactor="1.00" vaporized=""/>
    <tripinfo id="f_0.11" depart="33.00" departLane="3si_0" departPos="5.10" departSpeed="0.00" departDelay="11.00" arrival="153.00" arrivalLane="4o_0" arrivalPos="486.40" arrivalSpeed="10.22" duration="120.00" routeLength="741.12" waitingTime="1.00" waitingCount="1" stopTime="0.00" timeLoss="57.12" rerouteNo="0" devices="tripinfo_f_0.11" vType="DEFAULT_VEHTYPE" speedFactor="1.00" vaporized=""/>
    <tripinfo id="f_1.12" depart="37.00" departLane="1si_0" departPos="5.10" departSpeed="0.00" departDelay="13.00" arrival="156.00" arrivalLane="2o_0" arrivalPos="486.40" arrivalSpeed="10.79" duration="119.00" routeLength="741.12" waitingTime="1.00" waitingCount="1" stopTime="0.00" timeLoss="56.60" rerouteNo="0" devices="tripinfo_f_1.12" vType="DEFAULT_VEHTYPE" speedFactor="1.00" vaporized=""/>
    <tripinfo id="f_0.12" depart="36.00" departLane="3si_0" departPos="5.10" departSpeed="0.00" departDelay="12.00" arrival="160.00" arrivalLane="4o_0" arrivalPos="486.40" arrivalSpeed="10.36" duration="124.00" routeLength="741.12" waitingTime="2.00" waitingCount="2" stopTime="0.00" timeLoss="60.90" rerouteNo="0" devices="tripinfo_f_0.12" vType="DEFAULT_VEHTYPE" speedFactor="1.00" vaporized=""/>
    <tripinfo id="f_1.13" depart="40.00" departLane="1si_0" departPos="5.10" departSpeed="0.00" departDelay="14.00" arrival="163.00" arrivalLane="2o_0" arrivalPos="486.40" arrivalSpeed="10.93" duration="123.00" routeLength="741.12" waitingTime="1.00" waitingCount="1" stopTime="0.00" timeLoss="59.70" rerouteNo="0" devices="tripinfo_f_1.13" vType="DEFAULT_VEHTYPE" speedFactor="1.00" vaporized=""/>
    <tripinfo id="f_0.13" depart="39.00" departLane="3si_0" departPos="5.10" departSpeed="0.00" departDelay="13.00" arrival="166.00" arrivalLane="4o_0" arrivalPos="486.40" arrivalSpeed="10.47" duration="127.00" routeLength="741.12" waitingTime="1.00" waitingCount="1" stopTime="0.00" timeLoss="64.09" rerouteNo="0" devices="tripinfo_f_0.13" vType="DEFAULT_VEHTYPE" speedFactor="1.00" vaporized=""/>
    <tripinfo id="f_1.14" depart="43.00" departLane="1si_0" departPos="5.10" departSpeed="0.00" departDelay="15.00" arrival="170.00" arrivalLane="2o_0" arrivalPos="486.40" arrivalSpeed="10.13" duration="127.00" routeLength="741.12" waitingTime="1.00" waitingCount="1" stopTime="0.00" timeLoss="63.99" rerouteNo="0" devices="tripinfo_f_1.14" vType="DEFAULT_VEHTYPE" speedFactor="1.00" vaporized=""/>
    <tripinfo id="f_0.14" depart="42.00" departLane="3si_0" departPos="5.10" departSpeed="0.00" departDelay="14.00" arrival="173.00" arrivalLane="4o_0" arrivalPos="486.40" arrivalSpeed="10.74" duration="131.00" routeLength="741.12" waitingTime="2.00" waitingCount="2" stopTime="0.00" timeLoss="67.97" rerouteNo="0" devices="tripinfo_f_0.14" vType="DEFAULT_VEHTYPE" speedFactor="1.00" vaporized=""/>
    <tripinfo id="f_0.36" depart="99.00" departLane="3si_0" departPos="5.10" departSpeed="0.00" departDelay="27.00" arrival="176.00" arrivalLane="4o_0" arrivalPos="486.40" arrivalSpeed="10.90" duration="77.00" routeLength="741.12" waitingTime="4.00" waitingCount="2" stopTime="0.00" timeLoss="14.59" rerouteNo="0" devices="tripinfo_f_0.36" vType="DEFAULT_VEHTYPE" speedFactor="1.00" vaporized=""/>
    <tripinfo id="f_1.15" depart="46.00" departLane="1si_0" departPos="5.10" departSpeed="0.00" departDelay="16.00" arrival="178.00" arrivalLane="2o_0" arrivalPos="486.40" arrivalSpeed="9.85" duration="132.00" routeLength="741.12" waitingTime="3.00" waitingCount="2" stopTime="0.00" timeLoss="69.61" rerouteNo="0" devices="tripinfo_f_1.15" vType="DEFAULT_VEHTYPE" speedFactor="1.00" vaporized=""/>
    <tripinfo id="f_1.35" depart="93.00" departLane="1si_0" departPos="5.10" departSpeed="0.00" departDelay="23.00" arrival="182.00" arrivalLane="2o_0" arrivalPos="486.40" arrivalSpeed="9.94" duration="89.00" routeLength="741.12" waitingTime="9.00" waitingCount="2" stopTime="0.00" timeLoss="25.77" rerouteNo="0" devices="tripinfo_f_1.35" vType="DEFAULT_VEHTYPE" speedFactor="1.00" vaporized=""/>
    <tripinfo id="f_0.15" depart="45.00" departLane="3si_0" departPos="5.10" departSpeed="0.00" departDelay="15.00" arrival="185.00" arrivalLane="4o_0" arrivalPos="486.40" arrivalSpeed="9.89" duration="140.00" routeLength="741.12" waitingTime="7.00" waitingCount="2" stopTime="0.00" timeLoss="76.95" rerouteNo="0" devices="tripinfo_f_0.15" vType="DEFAULT_VEHTYPE" speedFactor="1.00" vaporized=""/>
    <tripinfo id="f_1.16" depart="49.00" departLane="1si_0" departPos="5.10" departSpeed="0.00" departDelay="17.00" arrival="187.00" arrivalLane="2o_0" arrivalPos="486.40" arrivalSpeed="9.95" duration="138.00" routeLength="741.12" waitingTime="6.00" waitingCount="2" stopTime="0.00" timeLoss="75.54" rerouteNo="0" devices="tripinfo_f_1.16" vType="DEFAULT_VEHTYPE" speedFactor="1.00" vaporized=""/>
    <tripinfo id="f_0.16" depart="48.00" departLane="3si_0" departPos="5.10" departSpeed="0.00" departDelay="16.00" arrival="191.00" arrivalLane="4o_0" arrivalPos="486.40" arrivalSpeed="11.05" duration="143.00" routeLength="741.12" waitingTime="5.00" waitingCount="2" stopTime="0.00" timeLoss="80.29" rerouteNo="0" devices="tripinfo_f_0.16" vType="DEFAULT_VEHTYPE" speedFactor="1.00" vaporized=""/>
    <tripinfo id="f_1.37" depart="100.00" departLane="1si_0" departPos="5.10" departSpeed="0.00" departDelay="26.00" arrival="194.00" arrivalLane="2o_0" arrivalPos="486.40" arrivalSpeed="9.96" duration="94.00" routeLength="741.12" waitingTime="11.00" waitingCount="4" stopTime="0.00" timeLoss="30.81" rerouteNo="0" devices="tripinfo_f_1.37" vType="DEFAULT_VEHTYPE" speedFactor="1.00" vaporized=""/>
    <tripinfo id="f_0.37" depart="102.00" departLane="3si_0" departPos="5.10" departSpeed="0.00" departDelay="28.00" arrival="197.00" arrivalLane="4o_0" arrivalPos="486.40" arrivalSpeed="10.67" duration="95.00" routeLength="741.12" waitingTime="11.00" waitingCount="3" stopTime="0.00" timeLoss="32.58" rerouteNo="0" devices="tripinfo_f_0.37" vType="DEFAULT_VEHTYPE" speedFactor="1.00" vaporized=""/>
    <tripinfo id="f_1.40" depart="109.00" departLane="1si_0" departPos="5.10" departSpeed="0.00" departDelay="29.00" arrival="200.00" arrivalLane="2o_0" arrivalPos="486.40" arrivalSpeed="10.07" duration="91.00" routeLength="741.12" waitingTime="9.00" waitingCount="3" stopTime="0.00" timeLoss="28.50" rerouteNo="0" devices="tripinfo_f_1.40" vType="DEFAULT_VEHTYPE" speedFactor="1.00" vaporized=""/>
    <tripinfo id="f_0.17" depart="51.00" departLane="3si_0" departPos="5.10" departSpeed="0.00" departDelay="17.00" arrival="205.00" arrivalLane="4o_0" arrivalPos="486.40" arrivalSpeed="10.14" duration="154.00" routeLength="741.12" waitingTime="11.00" waitingCount="5" stopTime="0.00" timeLoss="91.25" rerouteNo="0" devices="tripinfo_f_0.17" vType="DEFAULT_VEHTYPE" speedFactor="1.00" vaporized=""/>
    <tripinfo id="f_1.17" depart="52.00" departLane="1si_0" departPos="5.10" departSpeed="0.00" departDelay="18.00" arrival="207.00" arrivalLane="2o_0" arrivalPos="486.40" arrivalSpeed="10.89" duration="155.00" routeLength="741.12" waitingTime="19.00" waitingCount="3" stopTime="0.00" timeLoss="92.16" rerouteNo="0" devices="tripinfo_f_1.17" vType="DEFAULT_VEHTYPE" speedFactor="1.00" vaporized=""/>
    <tripinfo id="f_0.38" depart="105.00" departLane="3si_0" departPos="5.10" departSpeed="0.00" departDelay="29.00" arrival="213.00" arrivalLane="4o_0" arrivalPos="486.40" arrivalSpeed="10.28" duration="108.00" routeLength="741.12" waitingTime="17.00" waitingCount="4" stopTime="0.00" timeLoss="44.90" rerouteNo="0" devices="tripinfo_f_0.38" vType="DEFAULT_VEHTYPE" speedFactor="1.00" vaporized=""/>
    <tripinfo id="f_1.18" depart="55.00" departLane="1si_0" departPos="5.10" departSpeed="0.00" departDelay="19.00" arrival="215.00" arrivalLane="2o_0" arrivalPos="486.40" arrivalSpeed="10.24" duration="160.00" routeLength="741.12" waitingTime="18.00" waitingCount="3" stopTime="0.00" timeLoss="96.95" rerouteNo="0" devices="tripinfo_f_1.18" vType="DEFAULT_VEHTYPE" speedFactor="1.00" vaporized=""/>
    <tripinfo id="f_0.18" depart="54.00" departLane="3si_0" departPos="5.10" departSpeed="0.00" departDelay="18.00" arrival="220.00" arrivalLane="4o_0" arrivalPos="486.40" arrivalSpeed="10.74" duration="166.00" routeLength="741.12" waitingTime="17.00" waitingCount="4" stopTime="0.00" timeLoss="102.74" rerouteNo="0" devices="tripinfo_f_0.18" vType="DEFAULT_VEHTYPE" speedFactor="1.00" vaporized=""/>
    <tripinfo id="f_1.41" depart="112.00" departLane="1si_0" departPos="5.10" departSpeed="0.00" departDelay="30.00" arrival="222.00" arrivalLane="2o_0" arrivalPos="486.40" arrivalSpeed="10.65" duration="110.00" routeLength="741.12" waitingTime="22.00" waitingCount="4" stopTime="0.00" timeLoss="47.09" rerouteNo="0" devices="tripinfo_f_1.41" vType="DEFAULT_VEHTYPE" speedFactor="1.00" vaporized=""/>
    <tripinfo id="f_0.39" depart="108.00" departLane="3si_0" departPos="5.10" departSpeed="0.00" departDelay="30.00" arrival="227.00" arrivalLane="4o_0" arrivalPos="486.40" arrivalSpeed="10.04" duration="119.00" routeLength="741.12" waitingTime="21.00" waitingCount="3" stopTime="0.00" timeLoss="55.90" rerouteNo="0" devices="tripinfo_f_0.39" vType="DEFAULT_VEHTYPE" speedFactor="1.00" vaporized=""/>
    <tripinfo id="f_1.19" depart="58.00" departLane="1si_0" departPos="5.10" departSpeed="0.00" departDelay="20.00" arrival="229.00" arrivalLane="2o_0" arrivalPos="486.40" arrivalSpeed="10.85" duration="171.00" routeLength="741.12" waitingTime="22.00" waitingCount="6" stopTime="0.00" timeLoss="107.76" rerouteNo="0" devices="tripinfo_f_1.19" vType="DEFAULT_VEHTYPE" speedFactor="1.00" vaporized=""/>
    <tripinfo id="f_0.19" depart="57.00" departLane="3si_0" departPos="5.10" departSpeed="0.00" departDelay="19.00" arrival="234.00" arrivalLane="4o_0" arrivalPos="486.40" arrivalSpeed="10.59" duration="177.00" routeLength="741.12" waitingTime="24.00" waitingCount="3" stopTime="0.00" timeLoss="114.35" rerouteNo="0" devices="tripinfo_f_0.19" vType="DEFAULT_VEHTYPE" speedFactor="1.00" vaporized=""/>
    <tripinfo id="f_1.42" depart="115.00" departLane="1si_0" departPos="5.10" departSpeed="0.00" departDelay="31.00" arrival="236.00" arrivalLane="2o_0" arrivalPos="486.40" arrivalSpeed="10.66" duration="121.00" routeLength="741.12" waitingTime="26.00" waitingCount="5" stopTime="0.00" timeLoss="58.37" rerouteNo="0" devices="tripinfo_f_1.42" vType="DEFAULT_VEHTYPE" speedFactor="1.00" vaporized=""/>
    <tripinfo id="f_0.42" depart="114.00" departLane="3si_0" departPos="5.10" departSpeed="0.00" departDelay="30.00" arrival="239.00" arrivalLane="4o_0" arrivalPos="486.40" arrivalSpeed="9.86" duration="125.00" routeLength="741.12" waitingTime="24.00" waitingCount="5" stopTime="0.00" timeLoss="62.03" rerouteNo="0" devices="tripinfo_f_0.42" vType="DEFAULT_VEHTYPE" speedFactor="1.00" vaporized=""/>
    <tripinfo id="f_1.20" depart="60.00" departLane="1si_0" departPos="5.10" departSpeed="0.00" departDelay="20.00" arrival="243.00" arrivalLane="2o_0" arrivalPos="486.40" arrivalSpeed="10.42" duration="183.00" routeLength="741.12" waitingTime="26.00" waitingCount="6" stopTime="0.00" timeLoss="119.79" rerouteNo="0" devices="tripinfo_f_1.20" vType="DEFAULT_VEHTYPE" speedFactor="1.00" vaporized=""/>
    <tripinfo id="f_0.20" depart="59.00" departLane="3si_0" departPos="5.10" departSpeed="0.00" departDelay="19.00" arrival="246.00" arrivalLane="4o_0" arrivalPos="486.40" arrivalSpeed="9.94" duration="187.00" routeLength="741.12" waitingTime="29.00" waitingCount="3" stopTime="0.00" timeLoss="124.17" rerouteNo="0" devices="tripinfo_f_0.20" vType="DEFAULT_VEHTYPE" speedFactor="1.00" vaporized=""/>
    <tripinfo id="f_1.44" depart="119.00" departLane="1si_0" departPos="5.10" departSpeed="0.00" departDelay="31.00" arrival="250.00" arrivalLane="2o_0" arrivalPos="486.40" arrivalSpeed="10.80" duration="131.00" routeLength="741.12" waitingTime="31.00" waitingCount="3" stopTime="0.00" timeLoss="67.95" rerouteNo="0" devices="tripinfo_f_1.44" vType="DEFAULT_VEHTYPE" speedFactor="1.00" vaporized=""/>
    <tripinfo id="f_0.44" depart="120.00" departLane="3si_0" departPos="5.10" departSpeed="0.00" departDelay="32.00" arrival="253.00" arrivalLane="4o_0" arrivalPos="486.40" arrivalSpeed="10.53" duration="133.00" routeLength="741.12" waitingTime="27.00" waitingCount="6" stopTime="0.00" timeLoss="70.28" rerouteNo="0" devices="tripinfo_f_0.44" vType="DEFAULT_VEHTYPE" speedFactor="1.00" vaporized=""/>
    <tripinfo id="f_1.21" depart="62.00" departLane="1si_0" departPos="5.10" departSpeed="0.00" departDelay="20.00" arrival="257.00" arrivalLane="2o_0" arrivalPos="486.40" arrivalSpeed="10.44" duration="195.00" routeLength="741.12" waitingTime="35.00" waitingCount="5" stopTime="0.00" timeLoss="132.36" rerouteNo="0" devices="tripinfo_f_1.21" vType="DEFAULT_VEHTYPE" speedFactor="1.00" vaporized=""/>
    <tripinfo id="f_0.21" depart="61.00" departLane="3si_0" departPos="5.10" departSpeed="0.00" departDelay="19.00" arrival="260.00" arrivalLane="4o_0" arrivalPos="486.40" arrivalSpeed="11.09" duration="199.00" routeLength="741.12" waitingTime="35.00" waitingCount="4" stopTime="0.00" timeLoss="136.32" rerouteNo="0" devices="tripinfo_f_0.21" vType="DEFAULT_VEHTYPE" speedFactor="1.00" vaporized=""/>
    <tripinfo id="f_1.47" depart="128.00" departLane="1si_0" departPos="5.10" departSpeed="0.00" departDelay="34.00" arrival="265.00" arrivalLane="2o_0" arrivalPos="486.40" arrivalSpeed="9.91" duration="137.00" routeLength="741.12" waitingTime="31.00" waitingCount="2" stopTime="0.00" timeLoss="74.42" rerouteNo="0" devices="tripinfo_f_1.47" vType="DEFAULT_VEHTYPE" speedFactor="1.00" vaporized=""/>
    <tripinfo id="f_0.46" depart="126.00" departLane="3si_0" departPos="5.10" departSpeed="0.00" departDelay="34.00" arrival="268.00" arrivalLane="4o_0" arrivalPos="486.40" arrivalSpeed="10.90" duration="142.00" routeLength="741.12" waitingTime="31.00" waitingCount="3" stopTime="0.00" timeLoss="78.82" rerouteNo="0" devices="tripinfo_f_0.46" vType="DEFAULT_VEHTYPE" speedFactor="1.00" vaporized=""/>
    <tripinfo id="f_1.22" depart="64.00" departLane="1si_0" departPos="5.10" departSpeed="0.00" departDelay="20.00" arrival="271.00" arrivalLane="2o_0" arrivalPos="486.40" arrivalSpeed="10.61" duration="207.00" routeLength="741.12" waitingTime="41.00" waitingCount="6" stopTime="0.00" timeLoss="144.12" rerouteNo="0" devices="tripinfo_f_1.22" vType="DEFAULT_VEHTYPE" speedFactor="1.00" vaporized=""/>
    <tripinfo id="f_0.51" depart="139.00" departLane="3si_0" departPos="5.10" departSpeed="0.00" departDelay="37.00" arrival="275.00" arrivalLane="4o_0" arrivalPos="486.40" arrivalSpeed="10.90" duration="136.00" routeLength="741.12" waitingTime="46.00" waitingCount="5" stopTime="0.00" timeLoss="72.99" rerouteNo="0" devices="tripinfo_f_0.51" vType="DEFAULT_VEHTYPE" speedFactor="1.00" vaporized=""/>
    <tripinfo id="f_1.48" depart="131.00" departLane="1si_0" departPos="5.10" departSpeed="0.00" departDelay="35.00" arrival="278.00" arrivalLane="2o_0" arrivalPos="486.40" arrivalSpeed="9.86" duration="147.00" routeLength="741.12" waitingTime="38.00" waitingCount="3" stopTime="0.00" timeLoss="84.20" rerouteNo="0" devices="tripinfo_f_1.48" vType="DEFAULT_VEHTYPE" speedFactor="1.00" vaporized=""/>
    <tripinfo id="f_0.22" depart="63.00" departLane="3si_0" departPos="5.10" departSpeed="0.00" departDelay="19.00" arrival="281.00" arrivalLane="4o_0" arrivalPos="486.40" arrivalSpeed="10.06" duration="218.00" routeLength="741.12" waitingTime="47.00" waitingCount="5" stopTime="0.00" timeLoss="154.80" rerouteNo="0" devices="tripinfo_f_0.22" vType="DEFAULT_VEHTYPE" speedFactor="1.00" vaporized=""/>
    <tripinfo id="f_1.23" depart="65.00" departLane="1si_0" departPos="5.10" departSpeed="0.00" departDelay="19.00" arrival="285.00" arrivalLane="2o_0" arrivalPos="486.40" arrivalSpeed="9.97" duration="220.00" routeLength="741.12" waitingTime="48.00" waitingCount="6" stopTime="0.00" timeLoss="157.14" rerouteNo="0" devices="tripinfo_f_1.23" vType="DEFAULT_VEHTYPE" speedFactor="1.00" vaporized=""/>
    <tripinfo id="f_0.47" depart="129.00" departLane="3si_0" departPos="5.10" departSpeed="0.00" departDelay="35.00" arrival="288.00" arrivalLane="4o_0" arrivalPos="486.40" arrivalSpeed="10.58" duration="159.00" routeLength="741.12" waitingTime="39.00" waitingCount="3" stopTime="0.00" timeLoss="96.39" rerouteNo="0" devices="tripinfo_f_0.47" vType="DEFAULT_VEHTYPE" speedFactor="1.00" vaporized=""/>
    <tripinfo id="f_1.49" depart="134.00" departLane="1si_0" departPos="5.10" departSpeed="0.00" departDelay="36.00" arrival="290.00" arrivalLane="2o_0" arrivalPos="486.40" arrivalSpeed="10.39" duration="156.00" routeLength="741.12" waitingTime="43.00" waitingCount="4" stopTime="0.00" timeLoss="93.29" rerouteNo="0" devices="tripinfo_f_1.49" vType="DEFAULT_VEHTYPE" speedFactor="1.00" vaporized=""/>
    <tripinfo id="f_0.23" depart="65.00" departLane="3si_0" departPos="5.10" departSpeed="0.00" departDelay="19.00" arrival="295.00" arrivalLane="4o_0" arrivalPos="486.40" arrivalSpeed="10.88" duration="230.00" routeLength="741.12" waitingTime="50.00" waitingCount="3" stopTime="0.00" timeLoss="167.19" rerouteNo="0" devices="tripinfo_f_0.23" vType="DEFAULT_VEHTYPE" speedFactor="1.00" vaporized=""/>
    <tripinfo id="f_1.24" depart="68.00" departLane="1si_0" departPos="5.10" departSpeed="0.00" departDelay="20.00" arrival="298.00" arrivalLane="2o_0" arrivalPos="486.40" arrivalSpeed="10.47" duration="230.00" routeLength="741.12" waitingTime="55.00" waitingCount="5" stopTime="0.00" timeLoss="167.16" rerouteNo="0" devices="tripinfo_f_1.24" vType="DEFAULT_VEHTYPE" speedFactor="1.00" vaporized=""/>
    <tripinfo id="f_0.58" depart="211.00" departLane="3si_0" departPos="5.10" departSpeed="0.00" departDelay="95.00" arrival="303.00" arrivalLane="4o_0" arrivalPos="486.40" arrivalSpeed="10.16" duration="92.00" routeLength="741.12" waitingTime="5.00" waitingCount="4" stopTime="0.00" timeLoss="29.18" rerouteNo="0" devices="tripinfo_f_0.58" vType="DEFAULT_VEHTYPE" speedFactor="1.00" vaporized=""/>
    <tripinfo id="f_1.52" depart="143.00" departLane="1si_0" departPos="5.10" departSpeed="0.00" departDelay="39.00" arrival="305.00" arrivalLane="2o_0" arrivalPos="486.40" arrivalSpeed="10.73" duration="162.00" routeLength="741.12" waitingTime="43.00" waitingCount="5" stopTime="0.00" timeLoss="98.94" rerouteNo="0" devices="tripinfo_f_1.52" vType="DEFAULT_VEHTYPE" speedFactor="1.00" vaporized=""/>
    <tripinfo id="f_0.24" depart="67.00" departLane="3si_0" departPos="5.10" departSpeed="0.00" departDelay="19.00" arrival="312.00" arrivalLane="4o_0" arrivalPos="486.40" arrivalSpeed="11.03" duration="245.00" routeLength="741.12" waitingTime="55.00" waitingCount="4" stopTime="0.00" timeLoss="181.72" rerouteNo="0" devices="tripinfo_f_0.24" vType="DEFAULT_VEHTYPE" speedFactor="1.00" vaporized=""/>
    <tripinfo id="f_1.26" depart="72.00" departLane="1si_0" departPos="5.10" departSpeed="0.00" departDelay="20.00" arrival="313.00" arrivalLane="2o_0" arrivalPos="486.40" arrivalSpeed="10.00" duration="241.00" routeLength="741.12" waitingTime="60.00" waitingCount="7" stopTime="0.00" timeLoss="178.24" rerouteNo="0" devices="tripinfo_f_1.26" vType="DEFAULT_VEHTYPE" speedFactor="1.00" vaporized=""/>