<?xml version="1.0" encoding="UTF-8"?>

<!-- generated on 2024-12-04 15:30:27 by Eclipse SUMO sumo Version v1_21_0+1186-e3e93bd8c94
This data file and the accompanying materials
are made available under the terms of the Eclipse Public License v2.0
which accompanies this distribution, and is available at
http://www.eclipse.org/legal/epl-v20.html
This file may also be made available under the following Secondary
Licenses when the conditions for such availability set forth in the Eclipse
Public License 2.0 are satisfied: GNU General Public License, version 2
or later which is available at
https://www.gnu.org/licenses/old-licenses/gpl-2.0-standalone.html
SPDX-License-Identifier: EPL-2.0 OR GPL-2.0-or-later
<sumoConfiguration xmlns:xsi="http://www.w3.org/2001/XMLSchema-instance" xsi:noNamespaceSchemaLocation="http://sumo.dlr.de/xsd/sumoConfiguration.xsd">

    <input>
        <net-file value="net.net.xml"/>
        <route-files value="input_routes.rou.xml"/>
        <additional-files value="input_additional.add.xml"/>
    </input>

    <output>
        <write-license value="true"/>
        <tripinfo-output value="tripinfos.xml"/>
    </output>

    <time>
        <begin value="0"/>
        <end value="600"/>
    </time>

    <processing>
        <tls.all-off value="true"/>
        <default.speeddev value="0"/>
    </processing>

    <report>
        <xml-validation value="never"/>
        <duration-log.disable value="true"/>
        <no-step-log value="true"/>
    </report>

</sumoConfiguration>
-->

<tripinfos xmlns:xsi="http://www.w3.org/2001/XMLSchema-instance" xsi:noNamespaceSchemaLocation="http://sumo.dlr.de/xsd/tripinfo_file.xsd">
    <tripinfo id="f_1.0" depart="0.00" departLane="1si_0" departPos="5.10" departSpeed="0.00" departDelay="0.00" arrival="76.00" arrivalLane="2o_0" arrivalPos="486.40" arrivalSpeed="10.03" duration="76.00" routeLength="741.12" waitingTime="1.00" waitingCount="1" stopTime="0.00" timeLoss="13.52" rerouteNo="0" devices="tripinfo_f_1.0" vType="DEFAULT_VEHTYPE" speedFactor="1.00" vaporized=""/>
    <tripinfo id="f_0.0" depart="0.00" departLane="3si_0" departPos="5.10" departSpeed="0.00" departDelay="0.00" arrival="79.00" arrivalLane="4o_0" arrivalPos="486.40" arrivalSpeed="10.47" duration="79.00" routeLength="741.12" waitingTime="2.00" waitingCount="1" stopTime="0.00" timeLoss="16.30" rerouteNo="0" devices="tripinfo_f_0.0" vType="DEFAULT_VEHTYPE" speedFactor="1.00" vaporized=""/>
    <tripinfo id="f_1.1" depart="3.00" departLane="1si_0" departPos="5.10" departSpeed="0.00" departDelay="1.00" arrival="83.00" arrivalLane="2o_0" arrivalPos="486.40" arrivalSpeed="10.56" duration="80.00" routeLength="741.12" waitingTime="1.00" waitingCount="1" stopTime="0.00" timeLoss="16.90" rerouteNo="0" devices="tripinfo_f_1.1" vType="DEFAULT_VEHTYPE" speedFactor="1.00" vaporized=""/>
    <tripinfo id="f_0.1" depart="2.00" departLane="3si_0" departPos="5.10" departSpeed="0.00" departDelay="0.00" arrival="86.00" arrivalLane="4o_0" arrivalPos="486.40" arrivalSpeed="10.45" duration="84.00" routeLength="741.12" waitingTime="1.00" waitingCount="1" stopTime="0.00" timeLoss="21.07" rerouteNo="0" devices="tripinfo_f_0.1" vType="DEFAULT_VEHTYPE" speedFactor="1.00" vaporized=""/>
    <tripinfo id="f_1.2" depart="7.00" departLane="1si_0" departPos="5.10" departSpeed="0.00" departDelay="3.00" arrival="90.00" arrivalLane="2o_0" arrivalPos="486.40" arrivalSpeed="10.28" duration="83.00" routeLength="741.12" waitingTime="2.00" waitingCount="2" stopTime="0.00" timeLoss="19.69" rerouteNo="0" devices="tripinfo_f_1.2" vType="DEFAULT_VEHTYPE" speedFactor="1.00" vaporized=""/>
    <tripinfo id="f_0.2" depart="6.00" departLane="3si_0" departPos="5.10" departSpeed="0.00" departDelay="2.00" arrival="92.00" arrivalLane="4o_0" arrivalPos="486.40" arrivalSpeed="10.28" duration="86.00" routeLength="741.12" waitingTime="1.00" waitingCount="1" stopTime="0.00" timeLoss="23.32" rerouteNo="0" devices="tripinfo_f_0.2" vType="DEFAULT_VEHTYPE" speedFactor="1.00" vaporized=""/>
    <tripinfo id="f_1.3" depart="10.00" departLane="1si_0" departPos="5.10" departSpeed="0.00" departDelay="4.00" arrival="97.00" arrivalLane="2o_0" arrivalPos="486.40" arrivalSpeed="10.22" duration="87.00" routeLength="741.12" waitingTime="1.00" waitingCount="1" stopTime="0.00" timeLoss="24.07" rerouteNo="0" devices="tripinfo_f_1.3" vType="DEFAULT_VEHTYPE" speedFactor="1.00" vaporized=""/>
    <tripinfo id="f_0.3" depart="9.00" departLane="3si_0" departPos="5.10" departSpeed="0.00" departDelay="3.00" arrival="100.00" arrivalLane="4o_0" arrivalPos="486.40" arrivalSpeed="10.74" duration="91.00" routeLength="741.12" waitingTime="2.00" waitingCount="2" stopTime="0.00" timeLoss="28.26" rerouteNo="0" devices="tripinfo_f_0.3" vType="DEFAULT_VEHTYPE" speedFactor="1.00" vaporized=""/>
    <tripinfo id="f_1.4" depart="13.00" departLane="1si_0" departPos="5.10" departSpeed="0.00" departDelay="5.00" arrival="104.00" arrivalLane="2o_0" arrivalPos="486.40" arrivalSpeed="9.99" duration="91.00" routeLength="741.12" waitingTime="1.00" waitingCount="1" stopTime="0.00" timeLoss="28.09" rerouteNo="0" devices="tripinfo_f_1.4" vType="DEFAULT_VEHTYPE" speedFactor="1.00" vaporized=""/>
    <tripinfo id="f_0.4" depart="12.00" departLane="3si_0" departPos="5.10" departSpeed="0.00" departDelay="4.00" arrival="108.00" arrivalLane="4o_0" arrivalPos="486.40" arrivalSpeed="10.63" duration="96.00" routeLength="741.12" waitingTime="1.00" waitingCount="1" stopTime="0.00" timeLoss="33.19" rerouteNo="0" devices="tripinfo_f_0.4" vType="DEFAULT_VEHTYPE" speedFactor="1.00" vaporized=""/>
    <tripinfo id="f_1.5" depart="15.00" departLane="1si_0" departPos="5.10" departSpeed="0.00" departDelay="5.00" arrival="110.00" arrivalLane="2o_0" arrivalPos="486.40" arrivalSpeed="10.85" duration="95.00" routeLength="741.12" waitingTime="1.00" waitingCount="1" stopTime="0.00" timeLoss="31.65" rerouteNo="0" devices="tripinfo_f_1.5" vType="DEFAULT_VEHTYPE" speedFactor="1.00" vaporized=""/>
    <tripinfo id="f_0.5" depart="15.00" departLane="3si_0" departPos="5.10" departSpeed="0.00" departDelay="5.00" arrival="114.00" arrivalLane="4o_0" arrivalPos="486.40" arrivalSpeed="11.02" duration="99.00" routeLength="741.12" waitingTime="2.00" waitingCount="2" stopTime="0.00" timeLoss="36.26" rerouteNo="0" devices="tripinfo_f_0.5" vType="DEFAULT_VEHTYPE" speedFactor="1.00" vaporized=""/>
    <tripinfo id="f_1.6" depart="19.00" departLane="1si_0" departPos="5.10" departSpeed="0.00" departDelay="7.00" arrival="116.00" arrivalLane="2o_0" arrivalPos="486.40" arrivalSpeed="10.06" duration="97.00" routeLength="741.12" waitingTime="1.00" waitingCount="1" stopTime="0.00" timeLoss="34.42" rerouteNo="0" devices="tripinfo_f_1.6" vType="DEFAULT_VEHTYPE" speedFactor="1.00" vaporized=""/>
    <tripinfo id="f_0.6" depart="18.00" departLane="3si_0" departPos="5.10" departSpeed="0.00" departDelay="6.00" arrival="121.00" arrivalLane="4o_0" arrivalPos="486.40" arrivalSpeed="10.06" duration="103.00" routeLength="741.12" waitingTime="3.00" waitingCount="3" stopTime="0.00" timeLoss="39.85" rerouteNo="0" devices="tripinfo_f_0.6" vType="DEFAULT_VEHTYPE" speedFactor="1.00" vaporized=""/>
    <tripinfo id="f_1.7" depart="22.00" departLane="1si_0" departPos="5.10" departSpeed="0.00" departDelay="8.00" arrival="123.00" arrivalLane="2o_0" arrivalPos="486.40" arrivalSpeed="10.03" duration="101.00" routeLength="741.12" waitingTime="2.00" waitingCount="2" stopTime="0.00" timeLoss="38.10" rerouteNo="0" devices="tripinfo_f_1.7" vType="DEFAULT_VEHTYPE" speedFactor="1.00" vaporized=""/>
    <tripinfo id="f_0.7" depart="21.00" departLane="3si_0" departPos="5.10" departSpeed="0.00" departDelay="7.00" arrival="126.00" arrivalLane="4o_0" arrivalPos="486.40" arrivalSpeed="10.74" duration="105.00" routeLength="741.12" waitingTime="1.00" waitingCount="1" stopTime="0.00" timeLoss="42.07" rerouteNo="0" devices="tripinfo_f_0.7" vType="DEFAULT_VEHTYPE" speedFactor="1.00" vaporized=""/>
    <tripinfo id="f_1.8" depart="25.00" departLane="1si_0" departPos="5.10" departSpeed="0.00" departDelay="9.00" arrival="130.00" arrivalLane="2o_0" arrivalPos="486.40" arrivalSpeed="10.77" duration="105.00" routeLength="741.12" waitingTime="1.00" waitingCount="1" stopTime="0.00" timeLoss="42.31" rerouteNo="0" devices="tripinfo_f_1.8" vType="DEFAULT_VEHTYPE" speedFactor="1.00" vaporized=""/>
    <tripinfo id="f_0.8" depart="24.00" departLane="3si_0" departPos="5.10" departSpeed="0.00" departDelay="8.00" arrival="133.00" arrivalLane="4o_0" arrivalPos="486.40" arrivalSpeed="10.90" duration="109.00" routeLength="741.12" waitingTime="1.00" waitingCount="1" stopTime="0.00" timeLoss="46.46" rerouteNo="0" devices="tripinfo_f_0.8" vType="DEFAULT_VEHTYPE" speedFactor="1.00" vaporized=""/>
    <tripinfo id="f_1.9" depart="28.00" departLane="1si_0" departPos="5.10" departSpeed="0.00" departDelay="10.00" arrival="136.00" arrivalLane="2o_0" arrivalPos="486.40" arrivalSpeed="10.85" duration="108.00" routeLength="741.12" waitingTime="3.00" waitingCount="2" stopTime="0.00" timeLoss="45.54" rerouteNo="0" devices="tripinfo_f_1.9" vType="DEFAULT_VEHTYPE" speedFactor="1.00" vaporized=""/>
    <tripinfo id="f_0.9" depart="27.00" departLane="3si_0" departPos="5.10" departSpeed="0.00" departDelay="9.00" arrival="139.00" arrivalLane="4o_0" arrivalPos="486.40" arrivalSpeed="9.99" duration="112.00" routeLength="741.12" waitingTime="2.00" waitingCount="2" stopTime="0.00" timeLoss="49.61" rerouteNo="0" devices="tripinfo_f_0.9" vType="DEFAULT_VEHTYPE" speedFactor="1.00" vaporized=""/>
    <tripinfo id="f_1.10" depart="31.00" departLane="1si_0" departPos="5.10" departSpeed="0.00" departDelay="11.00" arrival="141.00" arrivalLane="2o_0" arrivalPos="486.40" arrivalSpeed="11.06" duration="110.00" routeLength="741.12" waitingTime="2.00" waitingCount="2" stopTime="0.00" timeLoss="47.46" rerouteNo="0" devices="tripinfo_f_1.10" vType="DEFAULT_VEHTYPE" speedFactor="1.00" vaporized=""/>
    <tripinfo id="f_0.10" depart="30.00" departLane="3si_0" departPos="5.10" departSpeed="0.00" departDelay="10.00" arrival="145.00" arrivalLane="4o_0" arrivalPos="486.40" arrivalSpeed="10.42" duration="115.00" routeLength="741.12" waitingTime="2.00" waitingCount="2" stopTime="0.00" timeLoss="51.90" rerouteNo="0" devices="tripinfo_f_0.10" vType="DEFAULT_VEHTYPE" speedFactor="1.00" vaporized=""/>
    <tripinfo id="f_1.11" depart="34.00" departLane="1si_0" departPos="5.10" departSpeed="0.00" departDelay="12.00" arrival="148.00" arrivalLane="2o_0" arrivalPos="486.40" arrivalSpeed="9.87" duration="114.00" routeLength="741.12" waitingTime="1.00" waitingCount="1" stopTime="0.00" timeLoss="50.88" rerouteNo="0" devices="tripinfo_f_1.11" vType="DEFAULT_VEHTYPE" speedFactor="1.00" vaporized=""/>
    <tripinfo id="f_0.11" depart="33.00" departLane="3si_0" departPos="5.10" departSpeed="0.00" departDelay="11.00" arrival="152.00" arrivalLane="4o_0" arrivalPos="486.40" arrivalSpeed="10.75" duration="119.00" routeLength="741.12" waitingTime="1.00" waitingCount="1" stopTime="0.00" timeLoss="55.78" rerouteNo="0" devices="tripinfo_f_0.11" vType="DEFAULT_VEHTYPE" speedFactor="1.00" vaporized=""/>
    <tripinfo id="f_1.12" depart="37.00" departLane="1si_0" departPos="5.10" departSpeed="0.00" departDelay="13.00" arrival="154.00" arrivalLane="2o_0" arrivalPos="486.40" arrivalSpeed="10.90" duration="117.00" routeLength="741.12" waitingTime="1.00" waitingCount="1" stopTime="0.00" timeLoss="54.59" rerouteNo="0" devices="tripinfo_f_1.12" vType="DEFAULT_VEHTYPE" speedFactor="1.00" vaporized=""/>
    <tripinfo id="f_0.12" depart="36.00" departLane="3si_0" departPos="5.10" departSpeed="0.00" departDelay="12.00" arrival="157.00" arrivalLane="4o_0" arrivalPos="486.40" arrivalSpeed="10.05" duration="121.00" routeLength="741.12" waitingTime="2.00" waitingCount="2" stopTime="0.00" timeLoss="58.38" rerouteNo="0" devices="tripinfo_f_0.12" vType="DEFAULT_VEHTYPE" speedFactor="1.00" vaporized=""/>
    <tripinfo id="f_1.13" depart="40.00" departLane="1si_0" departPos="5.10" departSpeed="0.00" departDelay="14.00" arrival="161.00" arrivalLane="2o_0" arrivalPos="486.40" arrivalSpeed="10.27" duration="121.00" routeLength="741.12" waitingTime="1.00" waitingCount="1" stopTime="0.00" timeLoss="57.95" rerouteNo="0" devices="tripinfo_f_1.13" vType="DEFAULT_VEHTYPE" speedFactor="1.00" vaporized=""/>
    <tripinfo id="f_0.13" depart="39.00" departLane="3si_0" departPos="5.10" departSpeed="0.00" departDelay="13.00" arrival="164.00" arrivalLane="4o_0" arrivalPos="486.40" arrivalSpeed="10.44" duration="125.00" routeLength="741.12" waitingTime="2.00" waitingCount="2" stopTime="0.00" timeLoss="62.35" rerouteNo="0" devices="tripinfo_f_0.13" vType="DEFAULT_VEHTYPE" speedFactor="1.00" vaporized=""/>
    <tripinfo id="f_1.14" depart="43.00" departLane="1si_0" departPos="5.10" departSpeed="0.00" departDelay="15.00" arrival="168.00" arrivalLane="2o_0" arrivalPos="486.40" arrivalSpeed="10.01" duration="125.00" routeLength="741.12" waitingTime="2.00" waitingCount="2" stopTime="0.00" timeLoss="62.09" rerouteNo="0" devices="tripinfo_f_1.14" vType="DEFAULT_VEHTYPE" speedFactor="1.00" vaporized=""/>
    <tripinfo id="f_0.14" depart="42.00" departLane="3si_0" departPos="5.10" departSpeed="0.00" departDelay="14.00" arrival="171.00" arrivalLane="4o_0" arrivalPos="486.40" arrivalSpeed="10.00" duration="129.00" routeLength="741.12" waitingTime="1.00" waitingCount="1" stopTime="0.00" timeLoss="66.66" rerouteNo="0" devices="tripinfo_f_0.14" vType="DEFAULT_VEHTYPE" speedFactor="1.00" vaporized=""/>
    <tripinfo id="f_1.15" depart="46.00" departLane="1si_0" departPos="5.10" departSpeed="0.00" departDelay="16.00" arrival="176.00" arrivalLane="2o_0" arrivalPos="486.40" arrivalSpeed="10.28" duration="130.00" routeLength="741.12" waitingTime="2.00" waitingCount="1" stopTime="0.00" timeLoss="66.82" rerouteNo="0" devices="tripinfo_f_1.15" vType="DEFAULT_VEHTYPE" speedFactor="1.00" vaporized=""/>
    <tripinfo id="f_0.15" depart="45.00" departLane="3si_0" departPos="5.10" departSpeed="0.00" departDelay="15.00" arrival="179.00" arrivalLane="4o_0" arrivalPos="486.40" arrivalSpeed="9.99" duration="134.00" routeLength="741.12" waitingTime="4.00" waitingCount="2" stopTime="0.00" timeLoss="71.29" rerouteNo="0" devices="tripinfo_f_0.15" vType="DEFAULT_VEHTYPE" speedFactor="1.00" vaporized=""/>
    <tripinfo id="f_1.16" depart="49.00" departLane="1si_0" departPos="5.10" departSpeed="0.00" departDelay="17.00" arrival="182.00" arrivalLane="2o_0" arrivalPos="486.40" arrivalSpeed="10.34" duration="133.00" routeLength="741.12" waitingTime="3.00" waitingCount="2" stopTime="0.00" timeLoss="70.04" rerouteNo="0" devices="tripinfo_f_1.16" vType="DEFAULT_VEHTYPE" speedFactor="1.00" vaporized=""/>
    <tripinfo id="f_0.16" depart="48.00" departLane="3si_0" departPos="5.10" departSpeed="0.00" departDelay="16.00" arrival="185.00" arrivalLane="4o_0" arrivalPos="486.40" arrivalSpeed="10.92" duration="137.00" routeLength="741.12" waitingTime="3.00" waitingCount="2" stopTime="0.00" timeLoss="74.17" rerouteNo="0" devices="tripinfo_f_0.16" vType="DEFAULT_VEHTYPE" speedFactor="1.00" vaporized=""/>
    <tripinfo id="f_1.36" depart="97.00" departLane="1si_0" departPos="5.10" departSpeed="0.00" departDelay="25.00" arrival="188.00" arrivalLane="2o_0" arrivalPos="486.40" arrivalSpeed="10.22" duration="91.00" routeLength="741.12" waitingTime="9.00" waitingCount="3" stopTime="0.00" timeLoss="28.16" rerouteNo="0" devices="tripinfo_f_1.36" vType="DEFAULT_VEHTYPE" speedFactor="1.00" vaporized=""/>
    <tripinfo id="f_0.35" depart="94.00" departLane="3si_0" departPos="5.10" departSpeed="0.00" departDelay="24.00" arrival="192.00" arrivalLane="4o_0" arrivalPos="486.40" arrivalSpeed="10.51" duration="98.00" routeLength="741.12" waitingTime="13.00" waitingCount="4" stopTime="0.00" timeLoss="35.04" rerouteNo="0" devices="tripinfo_f_0.35" vType="DEFAULT_VEHTYPE" speedFactor="1.00" vaporized=""/>
    <tripinfo id="f_1.17" depart="52.00" departLane="1si_0" departPos="5.10" departSpeed="0.00" departDelay="18.00" arrival="194.00" arrivalLane="2o_0" arrivalPos="486.40" arrivalSpeed="10.56" duration="142.00" routeLength="741.12" waitingTime="9.00" waitingCount="4" stopTime="0.00" timeLoss="78.93" rerouteNo="0" devices="tripinfo_f_1.17" vType="DEFAULT_VEHTYPE" speedFactor="1.00" vaporized=""/>
    <tripinfo id="f_0.17" depart="51.00" departLane="3si_0" departPos="5.10" departSpeed="0.00" departDelay="17.00" arrival="199.00" arrivalLane="4o_0" arrivalPos="486.40" arrivalSpeed="10.46" duration="148.00" routeLength="741.12" waitingTime="8.00" waitingCount="3" stopTime="0.00" timeLoss="84.88" rerouteNo="0" devices="tripinfo_f_0.17" vType="DEFAULT_VEHTYPE" speedFactor="1.00" vaporized=""/>
    <tripinfo id="f_1.37" depart="100.00" departLane="1si_0" departPos="5.10" departSpeed="0.00" departDelay="26.00" arrival="201.00" arrivalLane="2o_0" arrivalPos="486.40" arrivalSpeed="10.03" duration="101.00" routeLength="741.12" waitingTime="12.00" waitingCount="5" stopTime="0.00" timeLoss="37.82" rerouteNo="0" devices="tripinfo_f_1.37" vType="DEFAULT_VEHTYPE" speedFactor="1.00" vaporized=""/>
    <tripinfo id="f_0.37" depart="99.00" departLane="3si_0" departPos="5.10" departSpeed="0.00" departDelay="25.00" arrival="206.00" arrivalLane="4o_0" arrivalPos="486.40" arrivalSpeed="10.14" duration="107.00" routeLength="741.12" waitingTime="14.00" waitingCount="7" stopTime="0.00" timeLoss="43.77" rerouteNo="0" devices="tripinfo_f_0.37" vType="DEFAULT_VEHTYPE" speedFactor="1.00" vaporized=""/>
    <tripinfo id="f_1.18" depart="55.00" departLane="1si_0" departPos="5.10" departSpeed="0.00" departDelay="19.00" arrival="208.00" arrivalLane="2o_0" arrivalPos="486.40" arrivalSpeed="9.84" duration="153.00" routeLength="741.12" waitingTime="11.00" waitingCount="3" stopTime="0.00" timeLoss="89.76" rerouteNo="0" devices="tripinfo_f_1.18" vType="DEFAULT_VEHTYPE" speedFactor="1.00" vaporized=""/>
    <tripinfo id="f_0.18" depart="54.00" departLane="3si_0" departPos="5.10" departSpeed="0.00" departDelay="18.00" arrival="212.00" arrivalLane="4o_0" arrivalPos="486.40" arrivalSpeed="10.91" duration="158.00" routeLength="741.12" waitingTime="10.00" waitingCount="4" stopTime="0.00" timeLoss="95.19" rerouteNo="0" devices="tripinfo_f_0.18" vType="DEFAULT_VEHTYPE" speedFactor="1.00" vaporized=""/>
    <tripinfo id="f_1.40" depart="109.00" departLane="1si_0" departPos="5.10" departSpeed="0.00" departDelay="29.00" arrival="214.00" arrivalLane="2o_0" arrivalPos="486.40" arrivalSpeed="10.02" duration="105.00" routeLength="741.12" waitingTime="11.00" waitingCount="5" stopTime="0.00" timeLoss="42.30" rerouteNo="0" devices="tripinfo_f_1.40" vType="DEFAULT_VEHTYPE" speedFactor="1.00" vaporized=""/>
    <tripinfo id="f_0.38" depart="102.00" departLane="3si_0" departPos="5.10" departSpeed="0.00" departDelay="26.00" arrival="219.00" arrivalLane="4o_0" arrivalPos="486.40" arrivalSpeed="10.26" duration="117.00" routeLength="741.12" waitingTime="21.00" waitingCount="2" stopTime="0.00" timeLoss="54.06" rerouteNo="0" devices="tripinfo_f_0.38" vType="DEFAULT_VEHTYPE" speedFactor="1.00" vaporized=""/>
    <tripinfo id="f_1.19" depart="58.00" departLane="1si_0" departPos="5.10" departSpeed="0.00" departDelay="20.00" arrival="221.00" arrivalLane="2o_0" arrivalPos="486.40" arrivalSpeed="10.49" duration="163.00" routeLength="741.12" waitingTime="12.00" waitingCount="4" stopTime="0.00" timeLoss="100.11" rerouteNo="0" devices="tripinfo_f_1.19" vType="DEFAULT_VEHTYPE" speedFactor="1.00" vaporized=""/>
    <tripinfo id="f_0.19" depart="57.00" departLane="3si_0" departPos="5.10" departSpeed="0.00" departDelay="19.00" arrival="226.00" arrivalLane="4o_0" arrivalPos="486.40" arrivalSpeed="10.98" duration="169.00" routeLength="741.12" waitingTime="17.00" waitingCount="2" stopTime="0.00" timeLoss="106.56" rerouteNo="0" devices="tripinfo_f_0.19" vType="DEFAULT_VEHTYPE" speedFactor="1.00" vaporized=""/>
    <tripinfo id="f_1.45" depart="124.00" departLane="1si_0" departPos="5.10" departSpeed="0.00" departDelay="34.00" arrival="229.00" arrivalLane="2o_0" arrivalPos="486.40" arrivalSpeed="9.90" duration="105.00" routeLength="741.12" waitingTime="20.00" waitingCount="6" stopTime="0.00" timeLoss="41.92" rerouteNo="0" devices="tripinfo_f_1.45" vType="DEFAULT_VEHTYPE" speedFactor="1.00" vaporized=""/>
    <tripinfo id="f_0.40" depart="107.00" departLane="3si_0" departPos="5.10" departSpeed="0.00" departDelay="27.00" arrival="233.00" arrivalLane="4o_0" arrivalPos="486.40" arrivalSpeed="10.42" duration="126.00" routeLength="741.12" waitingTime="24.00" waitingCount="5" stopTime="0.00" timeLoss="63.10" rerouteNo="0" devices="tripinfo_f_0.40" vType="DEFAULT_VEHTYPE" speedFactor="1.00" vaporized=""/>
    <tripinfo id="f_1.41" depart="112.00" departLane="1si_0" departPos="5.10" departSpeed="0.00" departDelay="30.00" arrival="235.00" arrivalLane="2o_0" arrivalPos="486.40" arrivalSpeed="10.69" duration="123.00" routeLength="741.12" waitingTime="22.00" waitingCount="5" stopTime="0.00" timeLoss="60.01" rerouteNo="0" devices="tripinfo_f_1.41" vType="DEFAULT_VEHTYPE" speedFactor="1.00" vaporized=""/>
    <tripinfo id="f_1.20" depart="60.00" departLane="1si_0" departPos="5.10" departSpeed="0.00" departDelay="20.00" arrival="240.00" arrivalLane="2o_0" arrivalPos="486.40" arrivalSpeed="10.94" duration="180.00" routeLength="741.12" waitingTime="23.00" waitingCount="4" stopTime="0.00" timeLoss="117.06" rerouteNo="0" devices="tripinfo_f_1.20" vType="DEFAULT_VEHTYPE" speedFactor="1.00" vaporized=""/>
    <tripinfo id="f_0.20" depart="59.00" departLane="3si_0" departPos="5.10" departSpeed="0.00" departDelay="19.00" arrival="243.00" arrivalLane="4o_0" arrivalPos="486.40" arrivalSpeed="10.66" duration="184.00" routeLength="741.12" waitingTime="18.00" waitingCount="4" stopTime="0.00" timeLoss="121.20" rerouteNo="0" devices="tripinfo_f_0.20" vType="DEFAULT_VEHTYPE" speedFactor="1.00" vaporized=""/>
    <tripinfo id="f_1.44" depart="121.00" departLane="1si_0" departPos="5.10" departSpeed="0.00" departDelay="33.00" arrival="246.00" arrivalLane="2o_0" arrivalPos="486.40" arrivalSpeed="11.10" duration="125.00" routeLength="741.12" waitingTime="18.00" waitingCount="4" stopTime="0.00" timeLoss="62.04" rerouteNo="0" devices="tripinfo_f_1.44" vType="DEFAULT_VEHTYPE" speedFactor="1.00" vaporized=""/>
    <tripinfo id="f_0.43" depart="118.00" departLane="3si_0" departPos="5.10" departSpeed="0.00" departDelay="32.00" arrival="250.00" arrivalLane="4o_0" arrivalPos="486.40" arrivalSpeed="11.03" duration="132.00" routeLength="741.12" waitingTime="22.00" waitingCount="5" stopTime="0.00" timeLoss="68.81" rerouteNo="0" devices="tripinfo_f_0.43" vType="DEFAULT_VEHTYPE" speedFactor="1.00" vaporized=""/>
    <tripinfo id="f_1.21" depart="62.00" departLane="1si_0" departPos="5.10" departSpeed="0.00" departDelay="20.00" arrival="253.00" arrivalLane="2o_0" arrivalPos="486.40" arrivalSpeed="9.84" duration="191.00" routeLength="741.12" waitingTime="29.00" waitingCount="3" stopTime="0.00" timeLoss="127.88" rerouteNo="0" devices="tripinfo_f_1.21" vType="DEFAULT_VEHTYPE" speedFactor="1.00" vaporized=""/>
    <tripinfo id="f_0.21" depart="61.00" departLane="3si_0" departPos="5.10" departSpeed="0.00" departDelay="19.00" arrival="256.00" arrivalLane="4o_0" arrivalPos="486.40" arrivalSpeed="10.08" duration="195.00" routeLength="741.12" waitingTime="26.00" waitingCount="5" stopTime="0.00" timeLoss="132.14" rerouteNo="0" devices="tripinfo_f_0.21" vType="DEFAULT_VEHTYPE" speedFactor="1.00" vaporized=""/>
    <tripinfo id="f_1.22" depart="64.00" departLane="1si_0" departPos="5.10" departSpeed="0.00" departDelay="20.00" arrival="260.00" arrivalLane="2o_0" arrivalPos="486.40" arrivalSpeed="9.97" duration="196.00" routeLength="741.12" waitingTime="26.00" waitingCount="5" stopTime="0.00" timeLoss="132.75" rerouteNo="0" devices="tripinfo_f_1.22" vType="DEFAULT_VEHTYPE" speedFactor="1.00" vaporized=""/>
    <tripinfo id="f_0.44" depart="121.00" departLane="3si_0" departPos="5.10" departSpeed="0.00" departDelay="33.00" arrival="263.00" arrivalLane="4o_0" arrivalPos="486.40" arrivalSpeed="10.55" duration="142.00" routeLength="741.12" waitingTime="25.00" waitingCount="3" stopTime="0.00" timeLoss="78.87" rerouteNo="0" devices="tripinfo_f_0.44" vType="DEFAULT_VEHTYPE" speedFactor="1.00" vaporized=""/>
    <tripinfo id="f_1.47" depart="129.00" departLane="1si_0" departPos="5.10" departSpeed="0.00" departDelay="35.00" arrival="266.00" arrivalLane="2o_0" arrivalPos="486.40" arrivalSpeed="10.35" duration="137.00" routeLength="741.12" waitingTime="20.00" waitingCount="3" stopTime="0.00" timeLoss="74.04" rerouteNo="0" devices="tripinfo_f_1.47" vType="DEFAULT_VEHTYPE" speedFactor="1.00" vaporized=""/>
    <tripinfo id="f_0.22" depart="63.00" departLane="3si_0" departPos="5.10" departSpeed="0.00" departDelay="19.00" arrival="271.00" arrivalLane="4o_0" arrivalPos="486.40" arrivalSpeed="9.95" duration="208.00" routeLength="741.12" waitingTime="39.00" waitingCount="3" stopTime="0.00" timeLoss="145.09" rerouteNo="0" devices="tripinfo_f_0.22" vType="DEFAULT_VEHTYPE" speedFactor="1.00" vaporized=""/>
    <tripinfo id="f_1.23" depart="65.00" departLane="1si_0" departPos="5.10" departSpeed="0.00" departDelay="19.00" arrival="272.00" arrivalLane="2o_0" arrivalPos="486.40" arrivalSpeed="9.97" duration="207.00" routeLength="741.12" waitingTime="38.00" waitingCount="5" stopTime="0.00" timeLoss="144.49" rerouteNo="0" devices="tripinfo_f_1.23" vType="DEFAULT_VEHTYPE" speedFactor="1.00" vaporized=""/>
    <tripinfo id="f_0.47" depart="132.00" departLane="3si_0" departPos="5.10" departSpeed="0.00" departDelay="38.00" arrival="276.00" arrivalLane="4o_0" arrivalPos="486.40" arrivalSpeed="9.88" duration="144.00" routeLength="741.12" waitingTime="25.00" waitingCount="4" stopTime="0.00" timeLoss="81.33" rerouteNo="0" devices="tripinfo_f_0.47" vType="DEFAULT_VEHTYPE" speedFactor="1.00" vaporized=""/>
    <tripinfo id="f_1.54" depart="148.00" departLane="1si_0" departPos="5.10" departSpeed="0.00" departDelay="40.00" arrival="278.00" arrivalLane="2o_0" arrivalPos="486.40" arrivalSpeed="10.26" duration="130.00" routeLength="741.12" waitingTime="45.00" waitingCount="6" stopTime="0.00" timeLoss="67.57" rerouteNo="0" devices="tripinfo_f_1.54" vType="DEFAULT_VEHTYPE" speedFactor="1.00" vaporized=""/>
    <tripinfo id="f_1.57" depart="157.00" departLane="1si_0" departPos="5.10" departSpeed="0.00" departDelay="43.00" arrival="282.00" arrivalLane="2o_0" arrivalPos="486.40" arrivalSpeed="11.04" duration="125.00" routeLength="741.12" waitingTime="47.00" waitingCount="2" stopTime="0.00" timeLoss="61.75" rerouteNo="0" devices="tripinfo_f_1.57" vType="DEFAULT_VEHTYPE" speedFactor="1.00" vaporized=""/>
    <tripinfo id="f_0.23" depart="65.00" departLane="3si_0" departPos="5.10" departSpeed="0.00" departDelay="19.00" arrival="285.00" arrivalLane="4o_0" arrivalPos="486.40" arrivalSpeed="10.94" duration="220.00" routeLength="741.12" waitingTime="43.00" waitingCount="5" stopTime="0.00" timeLoss="156.79" rerouteNo="0" devices="tripinfo_f_0.23" vType="DEFAULT_VEHTYPE" speedFactor="1.00" vaporized=""/>
    <tripinfo id="f_1.49" depart="134.00" departLane="1si_0" departPos="5.10" departSpeed="0.00" departDelay="36.00" arrival="289.00" arrivalLane="2o_0" arrivalPos="486.40" arrivalSpeed="10.43" duration="155.00" routeLength="741.12" waitingTime="36.00" waitingCount="7" stopTime="0.00" timeLoss="92.10" rerouteNo="0" devices="tripinfo_f_1.49" vType="DEFAULT_VEHTYPE" speedFactor="1.00" vaporized=""/>
    <tripinfo id="f_0.48" depart="135.00" departLane="3si_0" departPos="5.10" departSpeed="0.00" departDelay="39.00" arrival="291.00" arrivalLane="4o_0" arrivalPos="486.40" arrivalSpeed="10.83" duration="156.00" routeLength="741.12" waitingTime="31.00" waitingCount="5" stopTime="0.00" timeLoss="93.32" rerouteNo="0" devices="tripinfo_f_0.48" vType="DEFAULT_VEHTYPE" speedFactor="1.00" vaporized=""/>
    <tripinfo id="f_1.24" depart="68.00" departLane="1si_0" departPos="5.10" departSpeed="0.00" departDelay="20.00" arrival="295.00" arrivalLane="2o_0" arrivalPos="486.40" arrivalSpeed="10.90" duration="227.00" routeLength="741.12" waitingTime="55.00" waitingCount="5" stopTime="0.00" timeLoss="163.72" rerouteNo="0" devices="tripinfo_f_1.24" vType="DEFAULT_VEHTYPE" speedFactor="1.00" vaporized=""/>
    <tripinfo id="f_0.24" depart="67.00" departLane="3si_0" departPos="5.10" departSpeed="0.00" departDelay="19.00" arrival="298.00" arrivalLane="4o_0" arrivalPos="486.40" arrivalSpeed="10.29" duration="231.00" routeLength="741.12" waitingTime="50.00" waitingCount="3" stopTime="0.00" timeLoss="168.25" rerouteNo="0" devices="tripinfo_f_0.24" vType="DEFAULT_VEHTYPE" speedFactor="1.00" vaporized=""/>
    <tripinfo id="f_1.50" depart="137.00" departLane="1si_0" departPos="5.10" departSpeed="0.00" departDelay="37.00" arrival="302.00" arrivalLane="2o_0" arrivalPos="486.40" arrivalSpeed="9.83" duration="165.00" routeLength="741.12" waitingTime="40.00" waitingCount="7" stopTime="0.00" timeLoss="101.85" rerouteNo="0" devices="tripinfo_f_1.50" vType="DEFAULT_VEHTYPE" speedFactor="1.00" vaporized=""/>
    <tripinfo id="f_0.50" depart="140.00" departLane="3si_0" departPos="5.10" departSpeed="0.00" departDelay="40.00" arrival="306.00" arrivalLane="4o_0" arrivalPos="486.40" arrivalSpeed="10.50" duration="166.00" routeLength="741.12" waitingTime="34.00" waitingCount="3" stopTime="0.00" timeLoss="103.55" rerouteNo="0" devices="tripinfo_f_0.50" vType="DEFAULT_VEHTYPE" speedFactor="1.00" vaporized=""/>
    <tripinfo id="f_1.26" depart="72.00" departLane="1si_0" departPos="5.10" departSpeed="0.00" departDelay="20.00" arrival="309.00" arrivalLane="2o_0" arrivalPos="486.40" arrivalSpeed="10.50" duration="237.00" routeLength="741.12" waitingTime="57.00" waitingCount="6" stopTime="0.00" timeLoss="174.13" rerouteNo="0" devices="tripinfo_f_1.26" vType="DEFAULT_VEHTYPE" speedFactor="1.00" vaporized=""/>