<?xml version="1.0" encoding="UTF-8"?>

<!-- generated on 2022-04-03 22:01:00 by Eclipse SUMO sumo Version v1_12_0+1895-7795d68
This data file and the accompanying materials
are made available under the terms of the Eclipse Public License v2.0
which accompanies this distribution, and is available at
http://www.eclipse.org/legal/epl-v20.html
This file may also be made available under the following Secondary
Licenses when the conditions for such availability set forth in the Eclipse
Public License 2.0 are satisfied: GNU General Public License, version 2
or later which is available at
https://www.gnu.org/licenses/old-licenses/gpl-2.0-standalone.html
SPDX-License-Identifier: EPL-2.0 OR GPL-2.0-or-later
<configuration xmlns:xsi="http://www.w3.org/2001/XMLSchema-instance" xsi:noNamespaceSchemaLocation="http://sumo.dlr.de/xsd/sumoConfiguration.xsd">

    <input>
        <net-file value="net.net.xml"/>
        <route-files value="input_routes.rou.xml"/>
        <additional-files value="input_additional.add.xml,input_additional2.add.xml"/>
    </input>

    <output>
        <write-license value="true"/>
    </output>

    <processing>
        <collision.check-junctions value="true"/>
        <tls.actuated.show-detectors value="true"/>
        <default.speeddev value="0"/>
    </processing>

    <report>
        <xml-validation value="never"/>
        <xml-validation.routes value="never"/>
        <duration-log.disable value="true"/>
        <no-step-log value="true"/>
    </report>

</configuration>
-->

<detector xmlns:xsi="http://www.w3.org/2001/XMLSchema-instance" xsi:noNamespaceSchemaLocation="http://sumo.dlr.de/xsd/det_e2_file.xsd">
   <interval begin="0.00" end="273.00" id="Detector_1" sampledSeconds="0.00" nVehEntered="0" nVehLeft="0" nVehSeen="0" meanSpeed="-1.00" meanTimeLoss="-1.00" meanOccupancy="0.00" maxOccupancy="0.00" meanMaxJamLengthInVehicles="0.00" meanMaxJamLengthInMeters="0.00" maxJamLengthInVehicles="0" maxJamLengthInMeters="0.00" jamLengthInVehiclesSum="0" jamLengthInMetersSum="0.00" meanHaltingDuration="0.00" maxHaltingDuration="0.00" haltingDurationSum="0.00" meanIntervalHaltingDuration="0.00" maxIntervalHaltingDuration="0.00" intervalHaltingDurationSum="0.00" startedHalts="0.00" meanVehicleNumber="0.00" maxVehicleNumber="0" />
   <interval begin="0.00" end="273.00" id="Detector_6" sampledSeconds="0.00" nVehEntered="0" nVehLeft="0" nVehSeen="0" meanSpeed="-1.00" meanTimeLoss="-1.00" meanOccupancy="0.00" maxOccupancy="0.00" meanMaxJamLengthInVehicles="0.00" meanMaxJamLengthInMeters="0.00" maxJamLengthInVehicles="0" maxJamLengthInMeters="0.00" jamLengthInVehiclesSum="0" jamLengthInMetersSum="0.00" meanHaltingDuration="0.00" maxHaltingDuration="0.00" haltingDurationSum="0.00" meanIntervalHaltingDuration="0.00" maxIntervalHaltingDuration="0.00" intervalHaltingDurationSum="0.00" startedHalts="0.00" meanVehicleNumber="0.00" maxVehicleNumber="0" />
   <interval begin="0.00" end="273.00" id="Detector_2" sampledSeconds="235.41" nVehEntered="22" nVehLeft="22" nVehSeen="22" meanSpeed="1.40" meanTimeLoss="9.46" meanOccupancy="29.83" maxOccupancy="64.98" meanMaxJamLengthInVehicles="0.69" meanMaxJamLengthInMeters="3.13" maxJamLengthInVehicles="2" maxJamLengthInMeters="9.00" jamLengthInVehiclesSum="189" jamLengthInMetersSum="854.91" meanHaltingDuration="38.80" maxHaltingDuration="50.00" haltingDurationSum="194.00" meanIntervalHaltingDuration="38.80" maxIntervalHaltingDuration="50.00" intervalHaltingDurationSum="194.00" startedHalts="5.00" meanVehicleNumber="0.95" maxVehicleNumber="2" />
   <interval begin="0.00" end="273.00" id="Detector_5" sampledSeconds="0.00" nVehEntered="0" nVehLeft="0" nVehSeen="0" meanSpeed="-1.00" meanTimeLoss="-1.00" meanOccupancy="0.00" maxOccupancy="0.00" meanMaxJamLengthInVehicles="0.00" meanMaxJamLengthInMeters="0.00" maxJamLengthInVehicles="0" maxJamLengthInMeters="0.00" jamLengthInVehiclesSum="0" jamLengthInMetersSum="0.00" meanHaltingDuration="0.00" maxHaltingDuration="0.00" haltingDurationSum="0.00" meanIntervalHaltingDuration="0.00" maxIntervalHaltingDuration="0.00" intervalHaltingDurationSum="0.00" startedHalts="0.00" meanVehicleNumber="0.00" maxVehicleNumber="0" />
   <interval begin="0.00" end="273.00" id="Detector_4" sampledSeconds="59.62" nVehEntered="10" nVehLeft="10" nVehSeen="10" meanSpeed="2.47" meanTimeLoss="4.81" meanOccupancy="8.91" maxOccupancy="74.97" meanMaxJamLengthInVehicles="0.04" meanMaxJamLengthInMeters="0.19" maxJamLengthInVehicles="1" maxJamLengthInMeters="5.00" jamLengthInVehiclesSum="12" jamLengthInMetersSum="52.14" meanHaltingDuration="1.92" maxHaltingDuration="3.00" haltingDurationSum="25.00" meanIntervalHaltingDuration="1.92" maxIntervalHaltingDuration="3.00" intervalHaltingDurationSum="25.00" startedHalts="13.00" meanVehicleNumber="0.25" maxVehicleNumber="2" />
   <interval begin="0.00" end="273.00" id="Detector_7" sampledSeconds="150.38" nVehEntered="22" nVehLeft="22" nVehSeen="22" meanSpeed="2.17" meanTimeLoss="5.62" meanOccupancy="18.73" maxOccupancy="64.98" meanMaxJamLengthInVehicles="0.38" meanMaxJamLengthInMeters="1.70" maxJamLengthInVehicles="2" maxJamLengthInMeters="9.00" jamLengthInVehiclesSum="104" jamLengthInMetersSum="464.95" meanHaltingDuration="21.80" maxHaltingDuration="35.00" haltingDurationSum="109.00" meanIntervalHaltingDuration="21.80" maxIntervalHaltingDuration="35.00" intervalHaltingDurationSum="109.00" startedHalts="5.00" meanVehicleNumber="0.62" maxVehicleNumber="2" />
   <interval begin="0.00" end="273.00" id="Detector_8" sampledSeconds="90.62" nVehEntered="16" nVehLeft="16" nVehSeen="16" meanSpeed="2.54" meanTimeLoss="4.54" meanOccupancy="13.16" maxOccupancy="73.98" meanMaxJamLengthInVehicles="0.05" meanMaxJamLengthInMeters="0.22" maxJamLengthInVehicles="2" maxJamLengthInMeters="10.00" jamLengthInVehiclesSum="14" jamLengthInMetersSum="59.69" meanHaltingDuration="1.67" maxHaltingDuration="3.00" haltingDurationSum="35.00" meanIntervalHaltingDuration="1.67" maxIntervalHaltingDuration="3.00" intervalHaltingDurationSum="35.00" startedHalts="21.00" meanVehicleNumber="0.38" maxVehicleNumber="2" />
   <interval begin="0.00" end="273.00" id="Detector_3" sampledSeconds="146.46" nVehEntered="28" nVehLeft="28" nVehSeen="28" meanSpeed="2.87" meanTimeLoss="4.00" meanOccupancy="18.36" maxOccupancy="69.46" meanMaxJamLengthInVehicles="0.33" meanMaxJamLengthInMeters="1.48" maxJamLengthInVehicles="2" maxJamLengthInMeters="9.00" jamLengthInVehiclesSum="90" jamLengthInMetersSum="403.96" meanHaltingDuration="16.00" maxHaltingDuration="33.00" haltingDurationSum="96.00" meanIntervalHaltingDuration="16.00" maxIntervalHaltingDuration="33.00" intervalHaltingDurationSum="96.00" startedHalts="6.00" meanVehicleNumber="0.64" maxVehicleNumber="2" />
</detector>
